ITEM: TIMESTEP
15000
ITEM: NUMBER OF ATOMS
10000
ITEM: BOX BOUNDS mm mm mm
-0.015 0.015
-0.015 0.015
-0.001 0.0554
ITEM: ATOMS id type x y z vx vy vz fx fy fz f_dragforce[1] f_dragforce[2] f_dragforce[3] radius 
1359 1 -0.0014911 -0.0132652 0.000499725 -0.000553608 -0.000160309 3.23426e-05 1.618e-07 -8.92289e-07 -9.00564e-08 3.54279e-08 1.33003e-07 1.80948e-06 0.0005 
2191 1 -5.01108e-05 -0.0133464 0.000499809 0.00131435 -0.000508687 -1.78353e-07 9.06896e-09 -9.74756e-09 -2.9874e-09 6.96446e-08 -1.20755e-08 1.27943e-06 0.0005 
637 1 -0.00304777 -0.0122405 0.00049876 -2.29274e-05 0.000180518 4.89138e-05 1.10381e-07 4.43461e-09 1.15977e-07 -9.06898e-08 1.50465e-07 1.11668e-06 0.0005 
1496 1 -0.00207142 -0.012451 0.000498802 5.45733e-05 5.28841e-05 3.2083e-05 2.60114e-07 -1.70671e-07 -1.39855e-08 -1.50473e-09 1.80736e-07 1.30233e-06 0.0005 
502 1 -0.000771712 -0.0125189 0.000499004 0.000180927 -0.000133324 8.0545e-05 5.04662e-07 -7.3159e-07 -9.75465e-09 5.57446e-08 1.56258e-07 1.19798e-06 0.0005 
1195 1 -0.00706083 -0.0111026 0.000499439 -0.000539662 -0.000344738 -2.12353e-05 5.55742e-07 3.20736e-08 1.81851e-07 -1.9788e-07 2.57988e-08 1.38236e-06 0.0005 
1356 1 -0.00631144 -0.0117641 0.000499551 -0.000153905 2.45395e-05 0.000115104 3.41507e-07 -1.01108e-07 -1.48078e-07 -1.94826e-07 1.08845e-07 1.56442e-06 0.0005 
939 1 -0.00514927 -0.0116609 0.000499657 1.02088e-05 -4.38714e-06 -6.3861e-06 1.20717e-07 -2.04175e-08 -1.12599e-07 -1.50767e-07 1.21242e-07 1.16769e-06 0.0005 
1758 1 -0.00414875 -0.0116605 0.000499795 -3.18408e-05 9.61902e-05 -3.34368e-07 -9.19096e-08 1.01141e-07 -2.18454e-09 -1.14986e-07 1.2615e-07 1.01747e-06 0.0005 
656 1 -0.00321918 -0.0112573 0.000499177 6.73496e-05 0.000319587 7.99933e-05 -2.6176e-08 -6.1954e-08 -3.4879e-08 -6.07576e-08 1.62386e-07 1.044e-06 0.0005 
758 1 -0.00220801 -0.0114601 0.000499795 -0.000291445 0.000323601 -2.53124e-07 -3.22558e-08 1.41731e-07 -2.71363e-09 -5.07584e-08 1.88857e-07 1.04803e-06 0.0005 
319 1 -0.00111971 -0.011564 0.000499787 -0.00019843 0.000134041 -3.45542e-05 3.36759e-07 -7.8949e-09 -2.91485e-08 -3.02474e-08 1.82379e-07 1.04931e-06 0.0005 
511 1 -1.41437e-05 -0.0111167 0.000497762 -2.24072e-05 -1.88402e-06 0.000120178 1.73198e-07 2.08377e-07 5.18722e-08 -2.38771e-08 2.34725e-08 8.92762e-07 0.0005 
1144 1 -0.00802013 -0.010663 0.000499789 -0.00112665 -0.000354914 -2.2973e-06 2.27287e-07 -1.00995e-07 -8.49556e-08 -2.32112e-07 -7.91658e-08 1.29332e-06 0.0005 
353 1 -0.00578129 -0.0108865 0.000499541 0.000471167 0.000348582 3.48851e-05 -8.33502e-08 -7.40862e-08 1.43644e-09 -1.32419e-07 5.40856e-08 1.09113e-06 0.0005 
1818 1 -0.00393688 -0.0105633 0.000498499 1.75664e-05 0.000494827 0.000123589 1.35893e-07 1.79913e-07 -4.64929e-08 -6.20403e-08 8.00506e-08 1.04023e-06 0.0005 
1873 1 -0.00258408 -0.0104864 0.000499794 5.19157e-05 0.000256311 -0.000212743 -2.79079e-07 -1.91035e-10 -1.66442e-07 -5.61061e-08 8.87294e-08 1.03116e-06 0.0005 
2211 1 -0.000754916 -0.010446 0.000498752 -1.11635e-05 9.6766e-06 4.68501e-05 -1.96368e-08 -3.19253e-07 -9.73342e-08 -6.31913e-08 7.0349e-08 9.95856e-07 0.0005 
647 1 -0.00885282 -0.0099932 0.00049961 -0.000487718 0.000415593 0.000102282 1.04554e-07 -1.46497e-07 2.60027e-07 -1.67316e-07 -1.69905e-07 1.26186e-06 0.0005 
542 1 -0.007336 -0.00993341 0.000499272 -0.000393073 -0.000766417 1.31549e-07 2.32279e-07 3.36527e-07 -5.33002e-08 -1.93302e-07 -1.79881e-07 9.62765e-07 0.0005 
1585 1 -0.0053547 -0.0099477 0.000499051 -0.000261861 7.34797e-05 5.41573e-05 4.57549e-08 -4.45018e-07 4.25727e-08 -5.11063e-08 -3.4126e-08 1.09965e-06 0.0005 
2142 1 -0.00326046 -0.00975084 0.000499296 -0.000233007 6.74487e-05 6.34045e-05 -2.89185e-07 -7.21153e-08 -5.6923e-08 -4.20887e-08 -4.72666e-08 1.02149e-06 0.0005 
2330 1 -0.00886449 -0.00898753 0.000498936 0.000135633 0.000207706 3.41393e-05 -1.25725e-07 -2.65605e-07 -2.13016e-07 -1.62571e-07 -2.5759e-07 9.31391e-07 0.0005 
733 1 -0.00681215 -0.00906861 0.000499241 0.000218592 -0.000114728 1.1772e-05 2.96719e-07 5.17315e-07 -2.22527e-07 -1.03449e-07 -1.97848e-07 1.04028e-06 0.0005 
1443 1 -0.00575636 -0.00889294 0.000499454 0.000165018 -0.000150335 -8.04508e-05 2.66641e-07 2.51428e-07 -5.28483e-08 -5.76759e-08 -2.24874e-07 1.15722e-06 0.0005 
1221 1 -0.00475692 -0.00887394 0.000499317 0.000263806 -5.91715e-05 2.67672e-05 3.02635e-07 -3.09821e-07 -4.55447e-08 -3.95488e-08 -2.30301e-07 1.15869e-06 0.0005 
388 1 -0.00321129 -0.00875226 0.000499772 -1.63013e-05 0.000111811 -6.73008e-06 2.40511e-07 -2.69857e-07 8.66778e-08 -4.46318e-08 -1.39088e-07 1.02291e-06 0.0005 
823 1 -0.00235997 -0.00927745 0.000499783 -0.000197108 0.000212987 -6.67396e-05 -9.86469e-07 1.55786e-06 9.34981e-08 -3.40097e-08 -1.07056e-07 9.99465e-07 0.0005 
714 1 -0.00108419 -0.00881178 0.000499253 -4.76705e-05 2.75356e-06 4.77596e-06 2.26607e-07 -3.27437e-07 -1.77799e-07 -2.81322e-08 -1.88557e-07 9.44208e-07 0.0005 
462 1 -8.61351e-05 -0.00886558 0.000499105 8.38944e-05 9.79479e-05 0.000115154 1.22435e-08 -1.29132e-08 2.89522e-07 -9.03404e-08 -1.03454e-07 8.76122e-07 0.0005 
529 1 -0.0102094 -0.00860239 0.000499605 -0.000225973 0.000284164 -3.99149e-05 -1.41931e-07 3.87535e-07 -1.58642e-07 8.89504e-08 -3.51619e-07 1.37192e-06 0.0005 
359 1 -0.00934036 -0.00810898 0.000498954 -0.000121262 6.19195e-05 -2.83166e-05 2.39826e-07 -6.21067e-08 -4.59857e-07 -1.29012e-07 -2.18362e-07 9.98568e-07 0.0005 
1505 1 -0.00807999 -0.00836801 0.000499593 0.000123606 0.000147914 -6.663e-05 -6.07326e-07 1.24306e-07 1.23679e-07 -1.52044e-07 -1.78523e-07 1.00139e-06 0.0005 
2252 1 -0.0061349 -0.00796763 0.000499689 -5.2161e-05 -6.18425e-05 5.12998e-05 -3.64259e-08 4.06246e-08 7.97088e-08 -6.1014e-08 -1.8094e-07 1.08933e-06 0.0005 
2042 1 -0.00233316 -0.00827434 0.000499749 2.66333e-05 0.000177497 -2.60808e-05 2.3468e-07 -5.13807e-09 -1.11565e-07 -3.60003e-08 -1.52041e-07 1.03062e-06 0.0005 
1539 1 -0.0108371 -0.00779727 0.000498782 -3.94594e-06 1.16512e-05 2.03852e-05 3.36277e-07 -1.36996e-07 -1.24999e-07 1.83184e-07 -3.00062e-07 1.5886e-06 0.0005 
986 1 -0.00812275 -0.00736904 0.000499714 0.000594983 0.000235692 3.74855e-05 -2.89518e-07 1.67666e-07 1.19594e-07 -2.62506e-07 -1.40328e-07 9.49657e-07 0.0005 
1847 1 -0.00709641 -0.00769349 0.000499053 -5.30935e-05 4.44988e-05 8.40526e-05 -5.49354e-08 2.22388e-07 9.88305e-08 -1.30252e-07 -1.48128e-07 1.10848e-06 0.0005 
1447 1 -0.00561077 -0.00711618 0.000499748 -2.35202e-05 -1.72985e-05 2.50889e-05 1.22571e-07 1.70681e-09 -1.98727e-07 -4.48438e-08 -1.50795e-07 1.06251e-06 0.0005 
1848 1 -0.00461855 -0.00723998 0.000499116 1.32172e-05 -9.42456e-05 0.000118765 -2.76422e-08 -4.39811e-07 -4.67768e-08 -8.65356e-08 -9.83966e-08 1.11726e-06 0.0005 
2417 1 -0.00359393 -0.00736172 0.000499628 4.7636e-05 0.000236896 -1.48464e-05 9.88002e-08 -1.56716e-09 7.6254e-08 -9.65598e-08 -9.11617e-08 1.07487e-06 0.0005 
1462 1 -0.00259539 -0.00730922 0.000498637 0.000130662 0.000148531 2.77203e-05 -1.34132e-07 -3.98995e-08 5.98945e-08 -8.02528e-08 -1.35247e-07 1.03038e-06 0.0005 
46 1 -0.00131669 -0.00783938 0.000499763 0.000143454 8.85396e-05 -2.15339e-05 -2.318e-07 -2.63406e-07 6.65763e-08 2.71015e-08 -3.61726e-07 1.14469e-06 0.0005 
1432 1 -0.000185539 -0.0078712 0.000499405 0.000186206 3.99891e-05 2.95167e-05 -1.41078e-07 -6.55229e-08 1.47482e-08 7.9787e-09 -2.09012e-07 9.97949e-07 0.0005 
2195 1 -0.0115997 -0.00660369 0.000498822 -0.000443857 0.000208814 3.95462e-05 3.81148e-07 -2.59217e-09 -2.42851e-07 3.58605e-07 -1.32748e-07 1.81507e-06 0.0005 
1429 1 -0.0105922 -0.00682629 0.000499802 9.40433e-05 0.000122232 3.73233e-05 -1.75373e-06 7.36493e-08 3.50813e-07 2.06944e-07 -1.51536e-07 1.10047e-06 0.0005 
551 1 -0.00959813 -0.00693398 0.000499217 -1.92886e-05 -0.000360129 7.72399e-05 4.98836e-07 -3.84421e-09 -3.53082e-07 -9.70773e-09 -1.51704e-07 1.0086e-06 0.0005 
1263 1 -0.00879834 -0.00633142 0.000499795 -0.000182178 0.000285624 -2.53588e-07 -1.06683e-07 -1.2811e-07 -2.9638e-09 -1.25486e-07 -1.42992e-07 9.59587e-07 0.0005 
490 1 -0.00778432 -0.00634837 0.000499255 5.34039e-05 0.000124224 6.41082e-05 -1.92925e-07 7.74945e-08 7.64528e-08 -2.74175e-07 -9.98423e-08 1.01075e-06 0.0005 
1485 1 -0.00646798 -0.00656803 0.000499752 -0.00023313 -0.000488842 -1.20052e-06 5.01857e-08 -5.51434e-08 -6.47161e-08 -1.12991e-07 -1.6864e-07 1.07117e-06 0.0005 
74 1 -0.00405052 -0.00639704 0.000499519 -4.35996e-05 -0.000164422 -1.80688e-05 -6.31468e-09 1.02758e-07 -8.91842e-09 5.05733e-08 -4.06378e-09 9.48094e-07 0.0005 
606 1 -0.0109801 -0.0058189 0.000499836 0.000464565 -0.000133994 -0.000462237 -1.80729e-06 8.96098e-08 2.42409e-06 3.11893e-07 -8.5078e-08 1.20952e-06 0.0005 
1293 1 -0.00999769 -0.006005 0.000499773 0.000582736 -0.000244081 -1.15647e-05 3.40074e-07 -2.63003e-08 1.28309e-07 2.68311e-07 -6.39962e-08 1.04986e-06 0.0005 
1248 1 -0.00702008 -0.00570332 0.000499796 -7.28486e-05 0.000283875 -4.51852e-06 2.96532e-07 -4.91352e-08 -8.13067e-08 -2.21327e-07 -8.81662e-08 1.03757e-06 0.0005 
1101 1 -0.00560511 -0.00601196 0.000498734 -5.30735e-05 -9.2411e-05 6.04246e-05 -6.72545e-08 1.15262e-07 2.68207e-08 -2.95073e-08 -1.33511e-07 1.07081e-06 0.0005 
817 1 -0.00467854 -0.00561229 0.000499479 5.6564e-05 0.000126048 2.12211e-05 3.90777e-09 2.00256e-07 1.39347e-07 6.39773e-08 1.27645e-08 9.50099e-07 0.0005 
1969 1 -0.00335331 -0.00559046 0.000499381 3.61744e-05 0.000106979 6.95164e-05 -4.73277e-08 -2.17404e-08 1.38395e-08 -1.87292e-07 -5.6568e-08 9.30468e-07 0.0005 
266 1 -0.00225317 -0.0060906 0.000499028 6.98235e-05 5.09391e-05 5.60494e-05 -7.4436e-08 -1.00398e-07 -2.32551e-08 -2.92486e-07 -1.77693e-07 9.22801e-07 0.0005 
1477 1 -0.000920205 -0.00626318 0.000499328 -5.31595e-05 0.000440019 3.02416e-05 -2.32073e-07 -5.9594e-08 4.51186e-09 -8.70867e-09 -2.60775e-07 1.1026e-06 0.0005 
740 1 -8.87192e-05 -0.00558777 0.000499501 -0.000150693 0.000143932 3.98921e-05 -1.72673e-07 -1.2248e-07 -4.20369e-07 1.62415e-07 -1.3879e-07 9.00676e-07 0.0005 
1091 1 -0.0121734 -0.00548244 0.000498513 -0.00014614 0.000310552 2.41954e-05 4.06221e-08 -1.59761e-08 1.11718e-08 2.7269e-07 -8.47155e-08 1.87981e-06 0.0005 
900 1 -0.0113641 -0.00489569 0.000499594 -2.53661e-05 4.23906e-06 3.93143e-05 5.07121e-08 3.71184e-07 -1.49213e-07 2.06992e-07 -9.77528e-08 1.00564e-06 0.0005 
1315 1 -0.0103197 -0.00483723 0.000499074 0.000303869 -6.75528e-05 2.27696e-05 3.81384e-08 2.91711e-07 1.21295e-07 2.18057e-07 -7.79275e-08 1.02798e-06 0.0005 
53 1 -0.00867687 -0.0052811 0.000498446 8.57166e-05 -1.78547e-05 5.29671e-05 7.8512e-08 3.8326e-08 2.80376e-08 -3.3755e-08 -1.82165e-07 9.76648e-07 0.0005 
1403 1 -0.00564813 -0.00495205 0.000499721 -4.54485e-06 -6.0393e-06 1.48773e-05 1.40048e-08 -1.47598e-07 2.88999e-08 -3.62344e-08 -2.71561e-08 9.89594e-07 0.0005 
2181 1 -0.00395229 -0.00479083 0.000498961 -0.000162771 2.94846e-05 6.00728e-05 2.09568e-08 6.71246e-08 -4.29764e-08 -1.53856e-07 -1.19781e-08 8.91943e-07 0.0005 
152 1 -0.00257282 -0.00496647 0.000499858 6.84809e-05 0.00011913 2.5668e-05 -1.45659e-07 -6.89424e-08 -4.04654e-08 -2.58634e-07 -3.53594e-08 1.08672e-06 0.0005 
262 1 -0.000967311 -0.00511071 0.000499428 -4.11473e-05 0.000364251 -3.07437e-05 -2.45529e-07 1.31275e-07 4.35779e-07 -8.12353e-10 -4.36652e-08 1.10669e-06 0.0005 
890 1 -0.012549 -0.00455636 0.000500273 -0.000154287 0.000290993 0.000250412 2.60785e-08 -1.62631e-07 -2.50453e-07 1.13719e-07 -7.96912e-08 1.71148e-06 0.0005 
2 1 -0.01089 -0.00401539 0.0004998 0.000205665 -6.43958e-05 -6.75546e-06 3.11624e-08 -2.2824e-08 -7.194e-08 1.04647e-07 -1.32014e-07 9.38849e-07 0.0005 
12 1 -0.00938643 -0.00445713 0.000499262 7.6508e-05 1.36542e-05 1.16349e-05 -1.15702e-07 -1.41037e-07 8.98191e-08 3.75539e-08 -1.41562e-07 9.89236e-07 0.0005 
1415 1 -0.00839555 -0.00432204 0.000499073 0.000115632 -1.64647e-05 2.50848e-05 1.39585e-07 6.70402e-08 -7.41682e-08 -3.80488e-08 -1.45047e-07 9.78108e-07 0.0005 
93 1 -0.00728857 -0.00463776 0.000499448 7.61887e-05 -0.000414224 3.56119e-05 1.70673e-07 2.80168e-08 3.33542e-08 -1.04784e-07 -1.19282e-07 1.00081e-06 0.0005 
2064 1 -0.00595409 -0.00400022 0.00049848 -5.76457e-05 9.14889e-06 9.65997e-05 1.74963e-08 -1.16123e-07 -1.80833e-08 -2.24527e-08 2.4446e-08 9.66631e-07 0.0005 
1452 1 -0.00495422 -0.00400443 0.000499815 4.26134e-06 -9.00141e-05 2.88451e-05 1.65059e-07 -6.77368e-07 -1.1319e-07 -4.09739e-08 1.89431e-08 9.1111e-07 0.0005 
1459 1 -0.00317139 -0.00416587 0.00049907 -0.000171705 2.16895e-05 4.65864e-05 -3.06562e-08 -1.24049e-07 -1.91441e-07 -2.33537e-07 3.20698e-08 1.10116e-06 0.0005 
1507 1 -0.00173773 -0.00441758 0.000499783 -0.000240649 0.000576922 -2.41196e-05 -1.38023e-07 -4.59396e-08 -2.37855e-08 -1.50752e-07 5.42907e-08 1.12454e-06 0.0005 
2217 1 -0.000782279 -0.00412458 0.000499224 -0.000210609 0.000438078 6.55673e-05 -2.26301e-08 -3.21061e-07 1.30921e-07 7.8346e-08 1.60692e-07 1.11227e-06 0.0005 
982 1 -0.0128885 -0.00348059 0.000499211 -0.00024019 0.000799059 7.16791e-05 -7.628e-08 2.54569e-07 -1.17592e-08 7.00222e-08 -3.04389e-08 1.69035e-06 0.0005 
1544 1 -0.00999924 -0.00356096 0.000499794 0.000350443 -0.000230935 -2.01564e-07 -7.85266e-09 -7.71542e-08 -1.1118e-08 3.18166e-08 -1.07755e-07 9.80362e-07 0.0005 
2007 1 -0.00899992 -0.0035244 0.000499797 0.000400218 -0.000691702 3.30543e-06 -5.00427e-08 -4.96065e-08 -1.61596e-08 -6.54498e-08 -9.57608e-08 1.02678e-06 0.0005 
1617 1 -0.00781592 -0.00350714 0.000499328 -2.44383e-05 6.55288e-05 2.69686e-05 2.04599e-08 2.83049e-07 6.31035e-09 -2.59679e-08 -7.68142e-08 9.825e-07 0.0005 
230 1 -0.00404143 -0.00359638 0.000499388 -0.000106118 0.000212715 6.78814e-05 1.03589e-07 -2.99579e-07 -1.51798e-07 -8.315e-08 4.92439e-08 9.03837e-07 0.0005 
1067 1 -0.00238867 -0.0035438 0.000499224 -0.000245577 0.000214806 1.19299e-05 -2.13178e-07 -1.90992e-07 -1.95688e-07 -2.19287e-07 1.15762e-07 1.03898e-06 0.0005 
9 1 -0.0130657 -0.00247443 0.000499623 -5.66501e-05 0.000230922 -2.23725e-05 -1.51127e-08 3.30233e-07 -7.36843e-08 1.02024e-07 2.45419e-08 1.71874e-06 0.0005 
2406 1 -0.0116642 -0.00306294 0.000498938 -0.000174939 8.29096e-05 4.22237e-05 2.19053e-07 1.49612e-08 3.7773e-08 1.00548e-07 -5.20779e-08 9.94883e-07 0.0005 
178 1 -0.00953279 -0.00267567 0.000499798 -3.19421e-05 -0.000565746 -2.53671e-07 -3.05734e-08 -2.81894e-08 -3.21778e-09 -2.59534e-08 -5.43689e-08 1.02782e-06 0.0005 
1238 1 -0.0085311 -0.00262911 0.000499315 -8.46099e-05 0.000164683 4.53172e-05 2.94793e-08 1.03697e-07 3.116e-07 -2.50863e-08 -4.7085e-08 1.00459e-06 0.0005 
1610 1 -0.00704588 -0.00272722 0.000499793 0.000717189 7.03505e-05 -9.79181e-08 9.50976e-09 -4.30774e-09 -1.70919e-09 3.60715e-08 -3.99524e-09 9.70905e-07 0.0005 
391 1 -0.00605564 -0.002884 0.000499796 0.000808964 -2.47275e-06 -6.08593e-08 7.03387e-08 3.4686e-08 -1.83272e-09 1.07696e-07 3.72621e-08 9.47348e-07 0.0005 
1178 1 -0.00506079 -0.00300661 0.000499792 0.000707661 0.00026566 5.5502e-08 5.4173e-08 3.3318e-08 -2.94646e-10 8.40467e-08 4.48108e-08 9.3247e-07 0.0005 
1798 1 -0.00415131 -0.00258963 0.000499751 -0.000265187 -0.00028219 1.30371e-05 -2.77317e-07 -3.1008e-08 4.54161e-08 9.82139e-08 5.50544e-08 9.27584e-07 0.0005 
619 1 -0.00323288 -0.00300818 0.000499721 -0.000122464 0.000385218 -3.36544e-05 -1.84566e-07 2.01586e-07 2.07089e-08 -1.43577e-07 1.2393e-07 8.94353e-07 0.0005 
38 1 -0.00211313 -0.00249283 0.00049979 -0.000712525 -2.51241e-05 -1.73851e-05 -8.47193e-08 3.33668e-07 -2.03366e-07 -1.91826e-07 1.74948e-07 8.84602e-07 0.0005 
736 1 -0.000792897 -0.00295412 0.00049979 -0.000368493 0.000648106 2.7476e-05 -4.81497e-07 2.61314e-07 -7.75532e-08 -7.90197e-08 1.45734e-07 1.08796e-06 0.0005 
186 1 -0.0124289 -0.00170373 0.000499092 0.00017341 2.76768e-05 4.28595e-05 7.76205e-08 2.74619e-08 7.69898e-08 1.65814e-07 6.46045e-08 1.15007e-06 0.0005 
459 1 -0.0114496 -0.00208743 0.00049985 0.000182444 3.45599e-05 -4.56128e-07 -7.83636e-08 4.34396e-08 3.56833e-08 1.83856e-07 4.5367e-08 1.02265e-06 0.0005 
866 1 -0.0104734 -0.00233414 0.000499571 -0.000136431 -0.000167661 -2.5004e-06 3.17892e-07 -6.43997e-08 7.04819e-08 9.52456e-08 -3.19804e-08 9.54453e-07 0.0005 
1411 1 -0.00937994 -0.00168387 0.000499677 -0.000135912 -8.243e-05 2.03108e-05 -6.93358e-08 3.55458e-07 5.56272e-08 8.3402e-08 -2.89777e-08 8.85962e-07 0.0005 
1278 1 -0.00775191 -0.00200318 0.000499672 -0.000108774 0.000123218 -1.4899e-05 -1.43809e-07 4.49799e-07 2.44437e-07 1.78324e-08 3.95288e-09 9.67801e-07 0.0005 
62 1 -0.00601498 -0.00187788 0.000499771 0.000908067 -7.66261e-05 9.64071e-06 4.89306e-08 -2.78529e-07 -4.46849e-09 1.03176e-07 2.79921e-08 9.47513e-07 0.0005 
1669 1 -0.00496413 -0.00200719 0.000499704 -0.000223314 -0.000254399 -9.71821e-06 1.08898e-07 3.13616e-07 -1.58309e-07 1.10528e-07 9.71415e-09 8.98434e-07 0.0005 
695 1 -0.00125487 -0.00197778 0.000499298 0.000137236 -6.33255e-05 9.05309e-05 2.11191e-07 -8.15248e-09 -2.04912e-07 -1.37655e-07 1.53217e-07 1.061e-06 0.0005 
1530 1 -0.0132946 -0.00120395 0.000499673 0.000123603 3.24179e-05 7.52966e-05 -3.94881e-07 -3.07012e-07 -3.72622e-08 1.2936e-07 1.11899e-07 1.81116e-06 0.0005 
1654 1 -0.010715 -0.00136422 0.000499424 0.000164495 -0.000103492 -1.32669e-05 -4.3721e-08 -1.09918e-07 -2.33063e-08 1.906e-07 9.37883e-08 1.04245e-06 0.0005 
299 1 -0.00769993 -0.000979997 0.000499796 0.000247423 7.63447e-05 -3.76194e-06 1.41037e-07 -1.25462e-08 -4.86931e-09 -1.59624e-08 7.12646e-08 9.36768e-07 0.0005 
98 1 -0.00667884 -0.00106336 0.00049917 -9.45978e-05 2.69911e-05 2.12082e-06 1.63895e-07 -4.64485e-08 -9.96306e-08 4.70151e-08 5.23271e-08 9.45214e-07 0.0005 
1060 1 -0.00391358 -0.00157395 0.000499391 8.1183e-05 -9.26082e-05 -3.74724e-06 3.64779e-07 3.6842e-08 -2.04956e-08 -3.18548e-09 -8.17369e-08 8.30367e-07 0.0005 
781 1 -0.00210658 -0.00129207 0.000499744 0.00569012 0.00274901 3.52847e-05 6.30199e-07 3.10186e-07 -3.29687e-08 -1.97213e-07 -1.2526e-08 8.47603e-07 0.0005 
1955 1 -0.00034108 -0.00148378 0.000499412 0.000511419 0.00025596 1.45555e-05 2.72263e-07 1.70548e-07 -1.13517e-08 -3.05064e-08 2.11434e-07 9.45784e-07 0.0005 
1675 1 -0.0124417 -0.000621145 0.000499208 7.99313e-05 -1.13325e-05 1.2273e-05 7.88352e-08 2.31392e-07 7.23734e-08 1.516e-07 1.56089e-07 1.14854e-06 0.0005 
2125 1 -0.0115146 -0.000114817 0.000499338 -9.4687e-05 0.000315265 4.39969e-05 -1.57537e-07 4.99745e-08 -2.39995e-08 3.18848e-08 2.16094e-07 1.08776e-06 0.0005 
2169 1 -0.00953375 -0.000695504 0.000499805 0.000426798 -0.000130454 -4.90753e-05 -2.92124e-07 8.92984e-08 -1.29227e-07 1.02027e-07 8.15682e-09 8.75099e-07 0.0005 
6577 1 -0.00859075 -0.000364898 0.000498833 0.00043533 -4.14206e-05 2.54287e-07 -1.42087e-07 5.79902e-08 -5.35479e-08 1.94093e-08 4.28483e-08 9.02667e-07 0.0005 
6638 1 -0.00683887 -7.73064e-05 0.000499204 0.00031467 3.57585e-05 4.34508e-05 4.26036e-08 1.75409e-08 -6.67245e-08 -5.54143e-09 7.75859e-08 8.78368e-07 0.0005 
1600 1 -0.00577056 -0.000645708 0.000499173 -0.000247264 0.000377655 8.18532e-05 -5.63861e-08 1.15719e-07 1.05486e-07 4.7483e-08 2.06336e-08 9.4859e-07 0.0005 
108 1 -0.00326114 -0.000748538 0.000499279 2.57251e-05 -3.63695e-05 4.9769e-05 -2.102e-07 -3.80081e-08 -1.94445e-07 -9.43976e-08 -1.459e-07 8.32524e-07 0.0005 
288 1 -0.00178145 -0.000342758 0.000499394 0.000100968 -0.000233948 4.18834e-05 -4.26887e-08 -1.15119e-07 -7.31625e-08 -2.49348e-08 6.58164e-10 8.79528e-07 0.0005 
1934 1 -0.000386661 -0.000485025 0.000499405 5.97959e-05 0.000241358 -4.19023e-05 4.51234e-07 2.72763e-07 2.84956e-08 9.61672e-11 2.15477e-07 9.25094e-07 0.0005 
1180 1 -0.00374279 -0.0128155 0.000927507 -2.31662e-05 7.26061e-05 9.20358e-05 1.04267e-07 -4.39483e-08 1.76126e-07 -1.43424e-07 9.17101e-08 2.10872e-06 0.0005 
1047 1 -0.00271684 -0.0130728 0.000939337 -1.26161e-05 0.000149572 0.000158592 3.88088e-09 8.03634e-08 9.32552e-08 -6.3814e-08 1.2396e-07 2.3332e-06 0.0005 
1971 1 -0.00013832 -0.0126733 0.00125573 -0.000127082 -3.77183e-06 0.000531965 5.63184e-07 1.72589e-07 3.61503e-07 9.38559e-09 -1.62856e-08 2.0001e-06 0.0005 
2053 1 -0.00467605 -0.0125047 0.000750688 -3.50986e-05 -4.79043e-08 3.76478e-05 2.1521e-07 2.21857e-08 -1.76064e-07 -1.66184e-07 1.10736e-07 1.95498e-06 0.0005 
427 1 -0.00477381 -0.0110273 0.00117571 0.000117276 0.000275889 -0.000346168 1.26561e-07 2.54655e-07 -5.54626e-07 -6.80675e-08 1.19581e-07 2.23181e-06 0.0005 
2081 1 -0.0016643 -0.0106895 0.000832673 -9.54465e-05 2.12094e-05 6.63538e-05 -3.35508e-07 -1.08579e-07 -6.79787e-07 -7.0944e-08 1.32923e-07 1.65226e-06 0.0005 
1375 1 -0.00811303 -0.0094807 0.000934163 4.09584e-06 -6.29333e-05 2.62644e-05 8.94797e-08 4.96897e-07 -4.37973e-07 -2.12514e-07 -2.67412e-07 1.79052e-06 0.0005 
1658 1 -0.00634623 -0.0100626 0.000541322 -0.000280224 -0.000141665 -6.96263e-05 8.27714e-08 -1.91358e-07 -2.14196e-07 -1.08292e-07 -6.49722e-08 1.18825e-06 0.0005 
110 1 -0.00455789 -0.0100547 0.00109143 -0.000174685 0.000432704 0.000160711 2.36613e-07 2.08584e-07 -1.7596e-08 -8.25291e-08 4.08939e-09 2.09726e-06 0.0005 
1487 1 -0.00223612 -0.00992617 0.00125054 -5.805e-05 0.000176476 -0.000163714 -5.60032e-07 -1.84976e-07 4.16492e-07 -1.18864e-07 -3.8731e-08 2.22972e-06 0.0005 
2090 1 -0.00144037 -0.00973336 0.000648017 0.000100354 -8.73e-05 -0.000251263 5.85576e-07 -4.50489e-07 -6.34192e-07 -5.05022e-08 -7.2896e-08 1.1578e-06 0.0005 
2461 1 -0.00958442 -0.00929488 0.00111883 0.000286965 -0.000262287 0.000123906 -4.58439e-08 -6.50173e-08 -1.98072e-07 -3.98751e-08 -2.72834e-07 2.25704e-06 0.0005 
1750 1 -0.00397254 -0.00925119 0.000991516 0.000194365 0.00024901 0.000616973 2.7353e-07 1.69005e-07 7.08669e-08 -3.66147e-08 -1.60173e-07 2.11963e-06 0.0005 
243 1 -0.00695765 -0.0083871 0.00121617 0.000147851 0.00029658 -0.000373047 8.18656e-08 -4.78753e-08 4.12802e-07 -5.06576e-08 -1.33248e-07 3.01778e-06 0.0005 
948 1 -0.00517912 -0.00801521 0.000789053 -4.79693e-05 -0.000174457 0.00011912 3.30914e-08 -3.87207e-07 -9.87639e-08 -8.07032e-08 -1.75956e-07 1.73604e-06 0.0005 
793 1 -0.00403017 -0.00822958 0.000735785 4.62116e-05 0.000221925 -7.33881e-07 1.21168e-07 -3.16974e-08 2.51968e-08 -1.08307e-07 -1.57123e-07 1.38883e-06 0.0005 
1694 1 -0.00170305 -0.00853161 0.00123212 -3.23286e-06 0.000149127 7.72253e-05 2.50921e-07 -3.61074e-07 -1.83024e-07 -7.37135e-08 -1.98616e-07 2.23355e-06 0.0005 
842 1 -0.0100247 -0.00764398 0.00105891 -5.4317e-05 -0.000298873 0.000261714 6.74234e-07 7.13855e-08 -3.04285e-07 -3.43764e-09 -2.64893e-07 2.04717e-06 0.0005 
239 1 -0.00900852 -0.00742076 0.00114306 0.000388501 -0.00021931 -6.9194e-05 1.1694e-07 -2.04505e-07 -3.80128e-07 -2.29899e-07 -1.73462e-07 2.23799e-06 0.0005 
13 1 -0.00304894 -0.00787022 0.00118917 0.000445691 8.03399e-05 0.000299513 -1.26078e-07 2.5637e-07 1.28726e-07 -8.39246e-08 -1.17664e-07 2.3488e-06 0.0005 
1059 1 -0.00717648 -0.00674107 0.00118811 -6.74024e-05 4.52981e-05 0.000183735 -5.95114e-07 -8.11252e-08 3.03387e-07 -2.48782e-07 -1.4296e-07 2.33111e-06 0.0005 
830 1 -0.00488222 -0.00642204 0.00105284 -3.89432e-05 -0.000185966 5.72728e-05 1.22469e-07 1.6776e-07 -7.72436e-08 3.87089e-08 -1.05594e-07 1.96628e-06 0.0005 
515 1 -0.00310662 -0.00650827 0.000807598 -1.37648e-05 7.48259e-05 2.95831e-05 -5.35653e-08 6.07035e-08 5.80017e-08 -2.2481e-07 -1.39757e-07 1.44402e-06 0.0005 
2336 1 -0.00168092 -0.00690933 0.000544369 0.000191862 0.000114526 3.929e-05 -1.41594e-07 -2.20729e-07 5.26543e-08 -9.2153e-08 -2.45099e-07 9.97791e-07 0.0005 
2421 1 -0.000540642 -0.00706421 0.000970165 -0.000222987 2.50229e-06 -0.000378308 1.66162e-07 1.3058e-07 8.90899e-08 3.14104e-08 -3.2647e-07 2.05835e-06 0.0005 
1645 1 -0.00625467 -0.00560073 0.00113567 -4.56969e-05 1.38275e-05 0.000142902 -2.49587e-07 -1.51212e-07 -1.05754e-07 -6.387e-08 -1.56631e-07 2.31323e-06 0.0005 
100 1 -0.00401457 -0.00568867 0.00124262 1.86619e-05 0.00020754 7.12251e-05 -6.28911e-08 2.34485e-07 1.08202e-07 5.89954e-08 5.98516e-09 2.24266e-06 0.0005 
2208 1 -0.00152671 -0.00571072 0.00107031 -0.000110849 0.000456903 3.41301e-05 -2.52737e-07 -5.6623e-08 1.07947e-07 -1.37856e-07 -1.69251e-07 2.13416e-06 0.0005 
220 1 -0.0094019 -0.00552152 0.00114103 6.53559e-05 0.000118699 0.000170705 2.16085e-08 -1.81414e-07 1.82644e-08 1.40769e-07 -1.2979e-07 2.26303e-06 0.0005 
1211 1 -0.00785054 -0.00549571 0.0010167 0.000107681 0.000108249 0.000139088 3.20796e-08 1.37173e-07 2.55085e-07 -1.624e-07 -1.38838e-07 1.9061e-06 0.0005 
565 1 -0.00329156 -0.00481704 0.00124826 -0.000155651 0.000132609 0.000125698 -1.491e-08 7.74506e-08 -4.18159e-08 -1.83818e-07 -3.66807e-08 2.3011e-06 0.0005 
2300 1 -0.0118218 -0.00397797 0.000868329 4.3783e-05 9.17759e-05 0.000211025 -2.39186e-07 3.28069e-08 -1.16779e-08 9.50551e-08 -7.95247e-08 1.81107e-06 0.0005 
1986 1 -0.0064709 -0.00462719 0.00107941 -0.000100248 6.28343e-05 0.000267027 -9.22746e-08 -7.89426e-08 -3.10216e-07 -8.43403e-08 -4.53056e-08 2.0523e-06 0.0005 
1236 1 -0.00459979 -0.00459037 0.00123241 -0.000219274 1.7974e-05 0.000185285 2.26672e-09 -2.26681e-07 -6.7618e-08 -1.12292e-07 -4.20798e-08 2.18113e-06 0.0005 
483 1 -0.00250791 -0.00419665 0.00124608 -0.000348894 0.000442151 0.000212647 -1.103e-07 1.12616e-07 -1.08659e-07 -3.30372e-07 2.02362e-08 2.71535e-06 0.0005 
696 1 -0.00687247 -0.00370647 0.000761786 8.43917e-06 0.00023287 5.9609e-05 5.09757e-08 1.34665e-07 1.39895e-08 -3.66e-08 -5.23355e-08 1.41578e-06 0.0005 
704 1 -0.00148126 -0.0035458 0.000918812 -0.000234463 0.000511353 7.86082e-05 -2.67578e-07 9.77022e-08 1.05917e-07 -8.1822e-08 1.0879e-07 1.77551e-06 0.0005 
2160 1 -7.76503e-05 -0.00355231 0.000916655 -0.000186872 0.000309103 0.000249667 3.86875e-08 -4.09985e-07 2.34412e-07 -2.19825e-09 7.5322e-08 1.68166e-06 0.0005 
532 1 -0.0107956 -0.00314633 0.000985225 -0.000179915 -5.64883e-05 0.000153577 1.60425e-07 -1.0274e-07 7.26118e-09 4.93174e-08 -1.29862e-07 1.86978e-06 0.0005 
1201 1 -0.00781986 -0.00278016 0.00118568 -3.23379e-05 0.000250301 -4.54306e-05 -1.64912e-07 2.64058e-07 1.46564e-07 1.47636e-09 -3.89854e-08 2.3199e-06 0.0005 
2459 1 -0.00351479 -0.00240994 0.0012496 0.00301178 0.00770196 -0.00468595 1.13516e-07 9.44049e-07 -5.78765e-07 -2.5189e-08 9.86091e-08 2.20388e-06 0.0005 
2224 1 -0.00855712 -0.00179912 0.00105606 -7.43156e-05 7.49072e-05 6.59663e-05 -1.94029e-07 6.44262e-07 3.8729e-07 9.31095e-09 -1.60201e-08 1.85776e-06 0.0005 
1596 1 -0.00697427 -0.001808 0.00109643 -6.39926e-05 5.38022e-05 -4.97976e-06 1.60096e-07 -5.87338e-08 -3.14601e-07 2.00926e-08 3.7447e-08 1.90065e-06 0.0005 
2261 1 -0.00295888 -0.00176148 0.000729742 0.00354559 -0.000822081 -0.0148873 6.35137e-07 -5.87437e-07 -1.92715e-06 -1.63322e-07 1.06175e-08 1.26881e-06 0.0005 
78 1 -0.0116474 -0.00115234 0.000789916 0.000201916 0.000110358 -6.07313e-05 -7.7717e-08 6.40609e-08 6.47729e-08 2.33284e-07 1.44553e-07 1.6843e-06 0.0005 
367 1 -0.0100611 -0.00114207 0.00122226 0.000279701 2.24175e-05 -0.000162749 -1.20822e-07 5.80769e-08 -7.62546e-08 1.87571e-07 3.66801e-08 2.27583e-06 0.0005 
5 1 -0.00506395 -0.00114465 0.000999537 -6.87505e-05 0.000257833 -7.18845e-05 -1.87135e-08 1.6538e-07 1.32129e-07 5.54798e-08 -8.46244e-08 1.70017e-06 0.0005 
1357 1 -0.00116711 -0.0010473 0.00085313 0.000322809 2.84899e-05 3.63515e-05 1.55065e-08 -8.2439e-08 -2.93986e-07 -1.09533e-07 1.90447e-07 1.57438e-06 0.0005 
967 1 -0.0133492 -0.000207676 0.000558729 5.13655e-05 6.33528e-06 0.000110172 7.93604e-09 -3.36231e-08 9.35969e-08 1.27634e-07 2.28109e-07 1.87956e-06 0.0005 
2095 1 -0.0104798 -0.000402378 0.000632661 0.000385309 -6.58114e-05 -7.80592e-05 -2.37876e-07 -1.27317e-07 7.71855e-09 8.55908e-08 1.29343e-07 1.21705e-06 0.0005 
42 1 -0.00418011 -0.000692396 0.000888403 6.95061e-05 3.44774e-05 3.07438e-05 -1.471e-07 -9.52354e-09 -3.58767e-07 2.52019e-08 -2.23695e-07 1.41462e-06 0.0005 
548 1 -0.00251996 -0.000550147 0.00114008 -0.000117368 -4.80809e-05 0.000113644 -3.46549e-07 -3.03446e-07 -1.5062e-07 -7.23759e-08 -1.3826e-07 2.06706e-06 0.0005 
805 1 -0.0029234 -0.0130129 0.00191438 -1.2937e-05 -0.000101235 0.000277289 -1.42811e-07 2.01346e-07 1.4945e-07 -1.39057e-07 8.26924e-08 3.61026e-06 0.0005 
643 1 -0.00198978 -0.0132019 0.00161195 3.23113e-05 9.57883e-05 0.00012307 -1.75767e-07 1.16528e-07 3.00976e-07 -2.98727e-08 1.29673e-07 3.35277e-06 0.0005 
1951 1 -0.00090796 -0.0133191 0.00131001 -0.000391576 -0.000104394 -0.000151129 6.68169e-07 -4.88167e-07 -5.56862e-07 9.4049e-09 9.39682e-08 2.86964e-06 0.0005 
2416 1 -0.000184276 -0.0133487 0.00199929 -0.00058953 -1.48198e-05 -3.19074e-06 -6.1579e-08 2.45988e-07 3.42631e-07 -1.38856e-07 1.98286e-08 3.45966e-06 0.0005 
2017 1 -0.00570892 -0.0119583 0.001273 -4.74364e-05 0.00156193 0.000512783 2.22962e-07 -2.8349e-07 -1.73402e-07 -1.71885e-07 1.21983e-07 2.66345e-06 0.0005 
527 1 -0.00435014 -0.0126215 0.00169748 0.000501606 -0.00018463 0.000604356 9.67337e-08 -5.90905e-08 2.57321e-07 -1.28681e-07 9.32883e-08 3.16384e-06 0.0005 
2327 1 -0.00336665 -0.0120787 0.00148816 -0.000155301 0.00015888 0.000110329 2.27761e-07 3.88367e-07 2.03715e-08 -1.44634e-07 1.0416e-07 2.86058e-06 0.0005 
886 1 -0.00238714 -0.0122696 0.00143314 -6.58051e-05 9.77953e-05 0.000577528 5.06208e-07 -7.72426e-08 -1.48854e-07 -7.71902e-08 1.22897e-07 2.80658e-06 0.0005 
848 1 -0.0014207 -0.0124622 0.00125629 6.57159e-05 5.83389e-05 8.74802e-05 5.58403e-07 -2.66384e-07 -6.27365e-08 3.03367e-08 1.92674e-07 2.80464e-06 0.0005 
125 1 -0.000677724 -0.0119454 0.00167793 -0.000135805 0.000159606 0.000375432 3.42155e-07 -7.15314e-10 1.95662e-07 -1.08521e-07 1.5039e-07 3.16652e-06 0.0005 
2456 1 -0.00683242 -0.0114693 0.00140081 -8.76806e-06 4.08431e-06 1.37183e-05 6.53198e-08 -7.94207e-08 2.99213e-07 -1.66995e-07 9.45185e-08 2.79537e-06 0.0005 
461 1 -0.00541696 -0.0112617 0.00192945 0.00166756 -0.000594784 -0.00219361 3.02913e-07 -2.39806e-07 -2.65098e-07 -8.46425e-08 1.54364e-07 3.55641e-06 0.0005 
2263 1 -0.00450409 -0.0116683 0.00195654 0.00219325 0.000571722 -0.00112155 2.10751e-07 -8.10799e-08 1.89548e-07 -7.33104e-08 1.55636e-07 3.55013e-06 0.0005 
1851 1 -0.00379748 -0.0111942 0.00131188 5.46963e-05 0.000273007 -1.33696e-05 -1.15311e-07 5.41556e-08 -2.03973e-07 -7.446e-08 1.5335e-07 2.60148e-06 0.0005 