# Probe 0 (3e-05 0 0.0001)
# Probe 1 (3e-05 0 0.0529)
#       Probe             0             1
#        Time
       0.0005        100037        100000
        0.001        100032        100000
       0.0015        100032        100000
        0.002        100029        100000
       0.0025        100029        100000
        0.003        100030        100000
       0.0035        100031        100000
        0.004        100034        100000
       0.0045        100037        100000
        0.005        100039        100000
       0.0055        100041        100000
        0.006        100043        100000
       0.0065        100045        100000
        0.007        100047        100000
       0.0075        100048        100000
        0.008        100050        100000
       0.0085        100051        100000
        0.009        100052        100000
       0.0095        100053        100000
         0.01        100053        100000
       0.0105        100053        100000
        0.011        100054        100000
       0.0115        100054        100000
        0.012        100054        100000
       0.0125        100056        100000
        0.013        100058        100000
       0.0135        100059        100000
        0.014        100060        100000
       0.0145        100063        100000
        0.015        100064        100000
       0.0155        100066        100000
        0.016        100066        100000
       0.0165        100068        100000
        0.017        100069        100000
       0.0175        100070        100000
        0.018        100070        100000
       0.0185        100071        100000
        0.019        100074        100000
       0.0195        100076        100000
         0.02        100076        100000
       0.0205        100076        100000
        0.021        100076        100000
       0.0215        100080        100000
        0.022        100080        100000
       0.0225        100079        100000
        0.023        100081        100000
       0.0235        100085        100000
        0.024        100084        100000
       0.0245        100083        100000
        0.025        100088        100000
       0.0255        100090        100000
        0.026        100088        100000
       0.0265        100089        100000
        0.027        100094        100000
       0.0275        100094        100000
        0.028        100093        100000
       0.0285        100094        100000
        0.029        100098        100000
       0.0295        100099        100000
         0.03        100098        100000
       0.0305        100099        100000
        0.031        100102        100000
       0.0315        100104        100000
        0.032        100102        100000
       0.0325        100103        100000
        0.033        100108        100000
       0.0335        100109        100000
        0.034        100106        100000
       0.0345        100107        100000
        0.035        100113        100000
       0.0355        100114        100000
        0.036        100114        100000
       0.0365        100113        100000
        0.037        100115        100000
       0.0375        100118        100000
        0.038        100117        100000
       0.0385        100118        100000
        0.039        100120        100000
       0.0395        100123        100000
         0.04        100121        100000
       0.0405        100121        100000
        0.041        100126        100000
       0.0415        100129        100000
        0.042        100128        100000
       0.0425        100129        100000
        0.043        100129        100000
       0.0435        100131        100000
        0.044        100133        100000
       0.0445        100133        100000
        0.045        100134        100000
       0.0455        100136        100000
        0.046        100138        100000
       0.0465        100139        100000
        0.047        100136        100000
       0.0475        100137        100000
        0.048        100143        100000
       0.0485        100145        100000
        0.049        100142        100000
       0.0495        100142        100000
         0.05        100146        100000
       0.0505        100148        100000
        0.051        100146        100000
       0.0515        100146        100000
        0.052        100151        100000
       0.0525        100152        100000
        0.053        100152        100000
       0.0535        100150        100000
        0.054        100150        100000
       0.0545        100155        100000
        0.055        100157        100000
       0.0555        100156        100000
        0.056        100154        100000
       0.0565        100158        100000
        0.057        100161        100000
       0.0575        100156        100000
        0.058        100156        100000
       0.0585        100160        100000
        0.059        100165        100000
       0.0595        100160        100000
         0.06        100160        100000
       0.0605        100163        100000
        0.061        100167        100000
       0.0615        100165        100000
        0.062        100151        100000
       0.0625        100156        100000
        0.063        100171        100000
       0.0635        100174        100000
        0.064        100170        100000
       0.0645        100162        100000
        0.065        100162        100000
       0.0655        100166        100000
        0.066        100166        100000
       0.0665        100165        100000
        0.067        100163        100000
       0.0675        100168        100000
        0.068        100172        100000
       0.0685        100171        100000
        0.069        100163        100000
       0.0695        100139        100000
         0.07        100171        100000
       0.0705        100182        100000
        0.071        100178        100000
       0.0715        100164        100000
        0.072        100157        100000
       0.0725        100171        100000
        0.073        100178        100000
       0.0735        100166        100000
        0.074        100159        100000
       0.0745        100175        100000
        0.075        100179        100000
       0.0755        100175        100000
        0.076        100163        100000
       0.0765        100159        100000
        0.077        100172        100000
       0.0775        100173        100000
        0.078        100172        100000
       0.0785        100165        100000
        0.079        100154        100000
       0.0795        100175        100000
         0.08        100183        100000
       0.0805        100166        100000
        0.081        100163        100000
       0.0815        100172        100000
        0.082        100171        100000
       0.0825        100162        100000
        0.083        100174        100000
       0.0835        100175        100000
        0.084        100169        100000
       0.0845        100150        100000
        0.085        100163        100000
       0.0855        100169        100000
        0.086        100172        100000
       0.0865        100164        100000
        0.087        100160        100000
       0.0875        100177        100000
        0.088        100179        100000
       0.0885        100139        100000
        0.089        100162        100000
       0.0895        100180        100000
         0.09        100184        100000
       0.0905        100175        100000
        0.091        100151        100000
       0.0915        100168        100000
        0.092        100184        100000
       0.0925        100175        100000
        0.093        100156        100000
       0.0935        100154        100000
        0.094        100178        100000
       0.0945        100187        100000
        0.095        100174        100000
       0.0955        100153        100000
        0.096        100155        100000
       0.0965        100179        100000
        0.097        100185        100000
       0.0975        100158        100000
        0.098        100146        100000
       0.0985        100172        100000
        0.099        100186        100000
       0.0995        100175        100000
          0.1        100160        100000
