# Probe 0 (3e-05 0 0.0001)
# Probe 1 (3e-05 0 0.0529)
#       Probe             0             1
#        Time
       0.0005        100037        100000
        0.001        100032        100000
       0.0015        100032        100000
        0.002        100029        100000
       0.0025        100029        100000
        0.003        100030        100000
       0.0035        100032        100000
        0.004        100034        100000
       0.0045        100037        100000
        0.005        100039        100000
       0.0055        100041        100000
        0.006        100043        100000
       0.0065        100045        100000
        0.007        100047        100000
       0.0075        100048        100000
        0.008        100050        100000
       0.0085        100051        100000
        0.009        100052        100000
       0.0095        100053        100000
         0.01        100053        100000
       0.0105        100054        100000
        0.011        100054        100000
       0.0115        100052        100000
        0.012        100054        100000
       0.0125        100058        100000
        0.013        100059        100000
       0.0135        100059        100000
        0.014        100059        100000
       0.0145        100064        100000
        0.015        100065        100000
       0.0155        100066        100000
        0.016        100067        100000
       0.0165        100068        100000
        0.017        100070        100000
       0.0175        100071        100000
        0.018        100071        100000
       0.0185        100072        100000
        0.019        100074        100000
       0.0195        100076        100000
         0.02        100077        100000
       0.0205        100078        100000
        0.021        100078        100000
       0.0215        100079        100000
        0.022        100081        100000
       0.0225        100082        100000
        0.023        100082        100000
       0.0235        100084        100000
        0.024        100085        100000
       0.0245        100087        100000
        0.025        100085        100000
       0.0255        100089        100000
        0.026        100092        100000
       0.0265        100093        100000
        0.027        100092        100000
       0.0275        100094        100000
        0.028        100096        100000
       0.0285        100096        100000
        0.029        100095        100000
       0.0295        100098        100000
         0.03        100102        100000
       0.0305        100101        100000
        0.031        100101        100000
       0.0315        100103        100000
        0.032        100105        100000
       0.0325        100107        100000
        0.033        100108        100000
       0.0335        100108        100000
        0.034        100109        100000
       0.0345        100110        100000
        0.035        100111        100000
       0.0355        100112        100000
        0.036        100115        100000
       0.0365        100115        100000
        0.037        100116        100000
       0.0375        100119        100000
        0.038        100121        100000
       0.0385        100121        100000
        0.039        100123        100000
       0.0395        100123        100000
         0.04        100124        100000
       0.0405        100125        100000
        0.041        100128        100000
       0.0415        100128        100000
        0.042        100127        100000
       0.0425        100129        100000
        0.043        100133        100000
       0.0435        100133        100000
        0.044        100132        100000
       0.0445        100134        100000
        0.045        100137        100000
       0.0455        100138        100000
        0.046        100138        100000
       0.0465        100139        100000
        0.047        100140        100000
       0.0475        100140        100000
        0.048        100141        100000
       0.0485        100143        100000
        0.049        100146        100000
       0.0495        100145        100000
         0.05        100147        100000
       0.0505        100148        100000
        0.051        100148        100000
       0.0515        100146        100000
        0.052        100148        100000
       0.0525        100150        100000
        0.053        100154        100000
       0.0535        100152        100000
        0.054        100154        100000
       0.0545        100156        100000
        0.055        100158        100000
       0.0555        100146        100000
        0.056        100155        100000
       0.0565        100162        100000
        0.057        100165        100000
       0.0575        100162        100000
        0.058        100158        100000
       0.0585        100161        100000
        0.059        100166        100000
       0.0595        100167        100000
         0.06        100159        100000
       0.0605        100158        100000
        0.061        100168        100000
       0.0615        100170        100000
        0.062        100162        100000
       0.0625        100159        100000
        0.063        100167        100000
       0.0635        100169        100000
        0.064        100166        100000
       0.0645        100161        100000
        0.065        100155        100000
       0.0655        100168        100000
        0.066        100171        100000
       0.0665        100168        100000
        0.067        100166        100000
       0.0675        100169        100000
        0.068        100173        100000
       0.0685        100167        100000
        0.069        100150        100000
       0.0695        100169        100000
         0.07        100175        100000
       0.0705        100174        100000
        0.071        100158        100000
       0.0715        100161        100000
        0.072        100177        100000
       0.0725        100176        100000
        0.073        100172        100000
       0.0735        100166        100000
        0.074        100163        100000
       0.0745        100168        100000
        0.075        100171        100000
       0.0755        100168        100000
        0.076        100152        100000
       0.0765        100174        100000
        0.077        100187        100000
       0.0775        100181        100000
        0.078        100161        100000
       0.0785        100167        100000
        0.079        100180        100000
       0.0795        100173        100000
         0.08        100162        100000
       0.0805        100172        100000
        0.081        100174        100000
       0.0815        100168        100000
        0.082        100166        100000
       0.0825        100172        100000
        0.083        100176        100000
       0.0835        100158        100000
        0.084        100136        100000
       0.0845        100179        100000
        0.085        100190        100000
       0.0855        100184        100000
        0.086        100173        100000
       0.0865        100165        100000
        0.087        100161        100000
       0.0875        100169        100000
        0.088        100180        100000
       0.0885        100170        100000
        0.089        100171        100000
       0.0895        100176        100000
         0.09        100175        100000
       0.0905        100163        100000
        0.091        100149        100000
       0.0915        100169        100000
        0.092        100182        100000
       0.0925        100182        100000
        0.093        100161        100000
       0.0935        100131        100000
        0.094        100176        100000
       0.0945        100187        100000
        0.095        100185        100000
       0.0955        100173        100000
        0.096        100159        100000
       0.0965        100157        100000
        0.097        100173        100000
       0.0975        100183        100000
        0.098        100158        100000
       0.0985        100167        100000
        0.099        100180        100000
       0.0995        100169        100000
          0.1        100163        100000
