# Probe 0 (3e-05 0 0.0001)
# Probe 1 (3e-05 0 0.0529)
#       Probe             0             1
#        Time
       0.0005             (0.000457424 0.000413569 0.00163702)             (7.69636e-07 1.10831e-07 0.00212911)
        0.001             (0.000398139 0.000431116 0.0021454)             (1.15889e-06 4.05911e-07 0.00223027)
       0.0015             (0.00043028 0.000394188 0.00253335)             (1.33771e-06 5.39838e-07 0.00259984)
        0.002             (0.000381873 0.000380152 0.00249392)             (1.32299e-06 6.10914e-07 0.00262109)
       0.0025             (0.000387852 0.000428917 0.00246688)             (1.38647e-06 9.48622e-07 0.00265965)
        0.003             (0.000284091 0.000462406 0.00235093)             (1.63496e-06 9.93097e-07 0.00268489)
       0.0035             (0.000219176 0.000426901 0.00227812)             (1.59557e-06 8.56441e-07 0.00275196)
        0.004             (0.000284527 0.000424205 0.00220978)             (1.61692e-06 8.74004e-07 0.00284324)
       0.0045             (0.000374346 0.000507942 0.0021178)             (1.65469e-06 8.21726e-07 0.00293458)
        0.005             (0.000340173 0.000617937 0.00198407)             (1.73102e-06 6.68313e-07 0.00301322)
       0.0055             (0.000369578 0.000579421 0.00185964)             (1.80151e-06 5.03114e-07 0.00308074)
        0.006             (0.000436109 0.000412663 0.00165129)             (1.81669e-06 4.38782e-07 0.00314327)
       0.0065             (0.000496569 0.00021733 0.00157066)             (1.82983e-06 4.15721e-07 0.00320956)
        0.007             (0.000471492 0.000161601 0.00157228)             (1.87915e-06 3.16739e-07 0.0032868)
       0.0075             (0.000383107 0.000157113 0.00166624)             (1.97208e-06 4.86111e-07 0.00338115)
        0.008             (0.000398809 0.000241449 0.00181108)             (2.02304e-06 8.01365e-07 0.00347594)
       0.0085             (0.000231315 0.000285216 0.00200601)             (2.08621e-06 8.80582e-07 0.00357536)
        0.009             (0.000101932 0.000254145 0.00223431)             (2.16456e-06 9.96818e-07 0.00367803)
       0.0095             (0.000112378 0.000299313 0.00243658)             (2.25809e-06 1.10995e-06 0.00378068)
         0.01             (0.000258327 0.000602605 0.00260419)             (2.2425e-06 8.32693e-07 0.00387545)
       0.0105             (0.000148002 0.000375971 0.0029229)             (2.2576e-06 8.17362e-07 0.00396703)
        0.011             (0.000122455 0.000569248 0.00311724)             (2.12405e-06 8.8698e-07 0.0040628)
       0.0115             (0.000462929 0.000498099 0.00331774)             (1.97591e-06 9.72133e-07 0.00416418)
        0.012             (0.000403021 0.000517786 0.00359484)             (1.94387e-06 6.312e-07 0.00425895)
       0.0125             (0.000369193 0.000775435 0.00331221)             (1.96627e-06 6.15386e-07 0.00434981)
        0.013             (0.000552761 0.000633719 0.00324883)             (1.85069e-06 3.98121e-07 0.00444303)
       0.0135             (0.000268361 0.000459737 0.00367915)             (1.81234e-06 3.30043e-07 0.00452291)
        0.014             (0.000292547 0.000642011 0.00353684)             (1.77612e-06 2.18598e-07 0.00461737)
       0.0145             (0.000644795 0.000620139 0.00328327)             (1.66899e-06 6.38187e-08 0.00471933)
        0.015             (0.000403876 0.000499538 0.00348716)             (1.69911e-06 9.50603e-08 0.00479593)
       0.0155             (0.000467142 0.000554312 0.00352396)             (1.74469e-06 2.47274e-08 0.00489312)
        0.016             (0.000323966 0.000863547 0.00347206)             (1.63582e-06 6.89632e-08 0.00500258)
       0.0165             (0.000558607 0.000736872 0.00359599)             (1.42973e-06 -5.88065e-07 0.00508852)
        0.017             (0.000614801 0.000657028 0.00363649)             (1.43563e-06 -2.29259e-07 0.00517006)
       0.0175             (0.000696877 0.000608398 0.00361624)             (1.44161e-06 -8.89654e-08 0.0052602)
        0.018             (0.000863949 0.000668629 0.00362476)             (1.16922e-06 -5.25034e-07 0.00535677)
       0.0185             (0.00094515 0.000655229 0.0035812)             (1.34232e-06 -5.11382e-07 0.00545219)
        0.019             (0.000922594 0.000586754 0.00341618)             (1.49092e-06 -2.83182e-07 0.00553223)
       0.0195             (0.000879564 0.000720554 0.00339241)             (1.41286e-06 -1.97195e-07 0.00561868)
         0.02             (0.00100067 0.000791468 0.00344997)             (1.20402e-06 -1.56016e-07 0.0057099)
       0.0205             (0.00136079 0.000764301 0.00324014)             (1.13571e-06 4.38688e-09 0.00580903)
        0.021             (0.00137705 0.000782401 0.00318078)             (1.02997e-06 -6.53938e-09 0.0059039)
       0.0215             (0.00137878 0.00083647 0.0031018)             (1.11289e-06 -1.74145e-07 0.00598209)
        0.022             (0.00149298 0.000837502 0.00284411)             (1.18938e-06 -1.15265e-07 0.00607475)
       0.0225             (0.00153282 0.000725797 0.00269164)             (1.00313e-06 -3.89254e-08 0.00618256)
        0.023             (0.00152343 0.000870241 0.00268152)             (1.00468e-06 -1.56778e-07 0.00627146)
       0.0235             (0.00157454 0.000828948 0.00259306)             (1.06516e-06 -4.33071e-08 0.00635494)
        0.024             (0.00164025 0.000791892 0.00232133)             (8.96736e-07 -5.24015e-08 0.00644512)
       0.0245             (0.00147745 0.000878752 0.00212438)             (7.17537e-07 5.70904e-08 0.00654871)
        0.025             (0.00168935 0.000879493 0.00202754)             (1.20063e-06 1.10264e-07 0.00663723)
       0.0255             (0.00175651 0.000913352 0.00182528)             (1.35158e-06 7.28224e-08 0.00671431)
        0.026             (0.00179632 0.00101163 0.00163129)             (8.73025e-07 2.30237e-07 0.00680958)
       0.0265             (0.0020181 0.000820907 0.00168643)             (7.28812e-07 4.35164e-07 0.00691414)
        0.027             (0.00139963 0.000540505 0.00213684)             (1.16983e-06 2.89458e-07 0.00700896)
       0.0275             (0.00104536 0.00101099 0.00243377)             (1.31818e-06 2.34414e-08 0.00709159)
        0.028             (0.00122648 0.00114057 0.00276285)             (7.19863e-07 1.1427e-07 0.00717467)
       0.0285             (0.0012629 0.00118818 0.00328064)             (1.72311e-07 5.97732e-08 0.00728015)
        0.029             (0.00120847 0.00109467 0.00351392)             (7.88174e-07 -5.68852e-08 0.00737936)
       0.0295             (0.0013052 0.00121253 0.00346466)             (1.17688e-06 -1.15693e-07 0.00746034)
         0.03             (0.00118511 0.00121794 0.00375307)             (9.09564e-07 -8.4626e-08 0.00754275)
       0.0305             (0.00101331 0.00101987 0.00386668)             (2.10418e-07 -5.30489e-07 0.00763936)
        0.031             (0.000851249 0.000942287 0.00363341)             (6.40193e-07 -9.21321e-07 0.00774432)
       0.0315             (0.000723766 0.00075624 0.00341698)             (9.86098e-07 -4.61305e-07 0.00783057)
        0.032             (0.000909095 0.000520917 0.00348373)             (7.48041e-07 -3.597e-07 0.00790111)
       0.0325             (0.00140938 0.000510825 0.00340821)             (-2.87054e-07 -1.03906e-07 0.00800907)
        0.033             (0.00097861 0.00021668 0.00383034)             (8.03864e-07 -2.60316e-07 0.00813009)
       0.0335             (0.000536318 0.000755383 0.00445774)             (1.03851e-06 -1.98186e-07 0.00820258)
        0.034             (0.000806158 0.000806302 0.00492875)             (6.49425e-07 -4.87565e-08 0.00827154)
       0.0345             (0.00306729 0.000836288 0.00463892)             (-7.27323e-06 1.46615e-06 0.00838681)
        0.035             (0.0012924 0.00104279 0.00534748)             (-9.70173e-07 1.55552e-07 0.00849177)
       0.0355             (0.000397797 0.000609723 0.00574946)             (6.85202e-07 1.01403e-07 0.00853049)
        0.036             (0.00044833 0.000539646 0.00583053)             (6.05071e-07 1.75303e-07 0.00855415)
       0.0365             (0.000234675 0.000559133 0.00596053)             (3.71196e-07 7.92141e-08 0.00873934)
        0.037             (-0.000231814 0.000973916 0.00592976)             (4.39886e-07 -3.5987e-08 0.00890786)
       0.0375             (0.000422088 0.000542258 0.00629801)             (6.21302e-07 -6.81947e-08 0.00899589)
        0.038             (0.000567271 0.000514376 0.00649401)             (8.61933e-07 -2.7515e-07 0.00903215)
       0.0385             (0.000642895 0.000645913 0.00646309)             (1.15495e-06 -6.48474e-07 0.00911041)
        0.039             (0.000268583 0.000706441 0.00645883)             (1.44574e-06 -8.46794e-07 0.00921153)
       0.0395             (0.000541133 0.000547258 0.00666569)             (1.46817e-06 -2.12962e-07 0.00930178)
         0.04             (0.000636353 0.000578978 0.00654147)             (1.38299e-06 -2.5595e-07 0.00938569)
       0.0405             (0.000545306 0.000521644 0.00647353)             (1.44288e-06 -4.7052e-07 0.0094804)
        0.041             (0.000764613 0.000537376 0.00760383)             (1.61419e-06 -3.60605e-07 0.00958088)
       0.0415             (0.000634783 0.000990252 0.00675927)             (1.93616e-06 -3.49227e-07 0.00967259)
        0.042             (0.000669537 0.00076889 0.00656276)             (1.71758e-06 -2.66753e-07 0.0097577)
       0.0425             (0.000530507 0.000622007 0.00688745)             (1.72984e-06 -2.78954e-07 0.00982643)
        0.043             (0.000397764 0.00066368 0.00688156)             (1.96781e-06 -2.56793e-07 0.00992903)
       0.0435             (0.000359388 0.00100889 0.00654472)             (1.95435e-06 -3.33038e-07 0.0100537)
        0.044             (0.000660258 0.000941695 0.0066785)             (1.73901e-06 -4.19602e-07 0.0101433)
       0.0445             (0.000443294 0.000766971 0.00703735)             (1.72928e-06 -2.07406e-07 0.0101979)
        0.045             (0.000394308 0.000906996 0.00697653)             (1.63298e-06 -3.16636e-07 0.010282)
       0.0455             (0.0010227 0.00117531 0.00647332)             (1.60911e-06 -6.14018e-07 0.0103903)
        0.046             (0.00136232 0.000803123 0.00703486)             (1.30566e-06 -2.45881e-07 0.0104854)
       0.0465             (0.000479098 0.00073893 0.00728212)             (1.75898e-06 -5.77179e-08 0.0105541)
        0.047             (0.00046453 0.000818461 0.00690592)             (1.87924e-06 -6.14985e-08 0.010647)
       0.0475             (0.00139801 0.000995293 0.00639417)             (1.77804e-06 -2.45236e-07 0.0107468)
        0.048             (0.000743545 0.000952338 0.00723531)             (1.69277e-06 -2.15312e-07 0.0108287)
       0.0485             (0.000664618 0.000976764 0.00754483)             (1.54802e-06 1.33062e-08 0.0108964)
        0.049             (0.00057267 0.00105052 0.00711375)             (1.66121e-06 -7.12634e-08 0.0110021)
       0.0495             (0.00120726 0.00137279 0.00637285)             (1.8059e-06 -5.87589e-07 0.0111121)
         0.05             (0.000627521 0.00110562 0.00736544)             (1.86341e-06 -1.11111e-06 0.0111944)
       0.0505             (0.000581694 0.000986135 0.00754228)             (1.96422e-06 -2.90324e-07 0.0112643)
        0.051             (0.000739789 0.000909266 0.00708312)             (1.7265e-06 3.83887e-10 0.0113799)
       0.0515             (0.00232157 0.000722709 0.00635673)             (1.59197e-06 -1.57864e-07 0.0114824)
        0.052             (0.000529586 0.00080005 0.00748764)             (1.74855e-06 3.42739e-08 0.0115529)
       0.0525             (0.000700219 0.000750074 0.0077469)             (1.67783e-06 2.22464e-07 0.0116106)
        0.053             (0.000703379 0.00102271 0.00743234)             (1.69026e-06 -1.94718e-07 0.011736)
       0.0535             (0.00137052 0.00155292 0.00683537)             (1.62775e-06 -3.98915e-07 0.0118397)
        0.054             (0.000903705 0.0012912 0.00752947)             (8.66454e-07 -2.81281e-07 0.01192)
       0.0545             (0.000853466 0.00127862 0.00774258)             (1.01706e-06 -2.19104e-07 0.0119905)
        0.055             (0.000720946 0.00121923 0.00748635)             (1.94969e-06 -5.76566e-07 0.0121029)
       0.0555             (0.00295504 0.000949038 0.00641761)             (1.78882e-06 -5.42456e-07 0.0122006)
        0.056             (0.00107709 0.00107003 0.0076785)             (1.52751e-06 -4.35739e-07 0.0122687)
       0.0565             (0.0014175 0.00100753 0.0077158)             (7.41442e-07 -1.01414e-07 0.0123108)
        0.057             (0.00142368 0.00086434 0.00737478)             (1.73393e-06 -3.01019e-07 0.0124268)
       0.0575             (0.000891289 0.00136487 0.00739544)             (2.07409e-06 -2.87863e-07 0.0125262)
        0.058             (0.00120914 0.00114457 0.00784321)             (1.40564e-06 2.33322e-07 0.0126082)
       0.0585             (0.00174041 0.00107155 0.00792401)             (8.44169e-08 6.87246e-07 0.0126801)
        0.059             (0.00164134 0.00121327 0.0073474)             (1.35347e-06 1.59266e-07 0.0127768)
       0.0595             (0.00474744 0.000979059 0.00605481)             (1.72959e-06 -2.81217e-07 0.0128629)
         0.06             (0.00133061 0.00146242 0.0090418)             (1.84919e-06 -7.40568e-08 0.0129178)
       0.0605             (0.00156974 0.0016671 0.00934001)             (1.03084e-06 4.34547e-07 0.0129401)
        0.061             (0.00151048 0.00195619 0.00926104)             (2.7469e-07 4.61166e-07 0.0130834)
       0.0615             (0.00108267 0.00247008 0.00921223)             (1.40645e-06 1.89973e-07 0.0131855)
        0.062             (0.00102669 0.00205295 0.00964899)             (1.91633e-06 4.12937e-07 0.0132437)
       0.0625             (0.00102099 0.00186055 0.0101561)             (1.93238e-06 8.78623e-07 0.0132999)
        0.063             (0.00152535 0.00220636 0.0103052)             (1.01617e-06 5.99317e-07 0.0133545)
       0.0635             (0.00138069 0.00222114 0.0102472)             (1.64907e-06 3.40461e-07 0.0134205)
        0.064             (0.000813633 0.00220394 0.0106668)             (2.37804e-06 3.01516e-07 0.0134881)
       0.0645             (0.000855219 0.00187791 0.0111434)             (2.57169e-06 8.4273e-07 0.0135595)
        0.065             (0.00150432 0.000372941 0.012898)             (1.64017e-06 2.10107e-06 0.0136334)
       0.0655             (0.00155115 0.00568359 0.0118918)             (1.44231e-06 7.33723e-07 0.0137233)
        0.066             (1.59093e-05 0.00252009 0.0115297)             (2.40561e-06 -6.22643e-08 0.0137976)
       0.0665             (-0.000322244 0.00182264 0.0119277)             (2.51109e-06 2.67778e-07 0.0138487)
        0.067             (3.95515e-05 0.00172395 0.0126863)             (2.73323e-06 1.16791e-07 0.0140084)
       0.0675             (0.00338169 0.00297078 0.0115899)             (1.61059e-06 -3.52543e-06 0.0141427)
        0.068             (0.00206401 0.00332235 0.0124225)             (2.42551e-06 -5.42794e-07 0.0142177)
       0.0685             (0.000325125 0.00250234 0.013363)             (2.80332e-06 1.38704e-06 0.0142474)
        0.069             (0.000576371 0.00248886 0.0132116)             (1.9036e-06 -2.61728e-07 0.0143355)
       0.0695             (0.000954321 0.00233887 0.0127346)             (3.01278e-06 -2.85521e-08 0.0144537)
         0.07             (0.00182287 0.00273732 0.0128452)             (1.49521e-06 -5.2259e-07 0.0145662)
       0.0705             (0.000710347 0.00288874 0.0137735)             (6.93894e-07 -1.07096e-06 0.0146223)
        0.071             (0.00057889 0.0029114 0.0135105)             (2.01514e-06 -1.29899e-06 0.0147123)
       0.0715             (0.00290407 0.00352423 0.01234)             (-2.64499e-07 -8.0667e-07 0.0148463)
        0.072             (0.00153694 0.00485659 0.0132988)             (1.60084e-06 -2.55365e-06 0.0149635)
       0.0725             (-0.000305984 0.00194248 0.0148189)             (3.06184e-06 -9.27556e-07 0.0150109)
        0.073             (-4.6684e-05 0.0012228 0.0131278)             (3.60756e-06 1.34663e-07 0.015086)
       0.0735             (0.00151455 0.00174257 0.0120322)             (2.67771e-06 -1.70789e-06 0.0152221)
        0.074             (0.00336071 0.00306509 0.0123591)             (1.96664e-06 -1.16513e-06 0.0153271)
       0.0745             (0.00101591 0.00282323 0.0148183)             (2.43659e-06 -1.47382e-06 0.015377)
        0.075             (0.000632381 0.00213293 0.0134317)             (2.04042e-06 -3.22002e-06 0.0154006)
       0.0755             (0.00196782 0.00226636 0.0118521)             (2.15307e-06 -1.99595e-06 0.015541)
        0.076             (0.00102352 0.00237714 0.016686)             (1.41735e-06 -1.1208e-06 0.0156864)
       0.0765             (0.000921989 0.00335823 0.0130395)             (1.31683e-06 -4.67233e-06 0.0157628)
        0.077             (0.000491927 0.00205641 0.0115842)             (2.24179e-06 -2.24034e-06 0.0158212)
       0.0775             (0.00079279 0.000900588 0.0121013)             (2.47285e-06 -7.94849e-07 0.015903)
        0.078             (0.000290943 0.00183313 0.0133531)             (2.42632e-06 -1.09792e-06 0.0160201)
       0.0785             (0.00157866 0.00195867 0.0131611)             (6.39402e-07 -2.21816e-06 0.0161107)
        0.079             (0.00249185 0.00249828 0.0131463)             (2.28633e-07 -8.44226e-07 0.0162053)
       0.0795             (0.00157809 0.00261219 0.0139192)             (4.1676e-06 -4.22116e-07 0.0162772)
         0.08             (0.000639025 0.00256121 0.0151007)             (3.46941e-06 -2.40337e-06 0.0163513)
       0.0805             (0.000781794 0.0026911 0.0148374)             (3.14783e-06 -1.69175e-06 0.0164755)
        0.081             (0.00192328 0.00177559 0.0138651)             (2.72275e-06 -5.74613e-07 0.0166073)
       0.0815             (0.0021231 0.00114078 0.0145632)             (2.32605e-06 4.38506e-07 0.0166811)
        0.082             (0.000374451 0.00172847 0.0143119)             (3.18445e-06 -2.66312e-06 0.0167203)
       0.0825             (0.000394922 0.00207567 0.0131429)             (3.48052e-06 -2.04733e-06 0.0167672)
        0.083             (0.000377237 0.00461206 0.0134624)             (3.76035e-06 -9.93332e-07 0.0169424)
       0.0835             (0.00168356 0.00189783 0.0148201)             (3.48725e-06 -3.8735e-07 0.0170667)
        0.084             (-0.000632745 0.00193127 0.01315)             (6.25654e-06 -1.99358e-06 0.0171278)
       0.0845             (-0.000202039 0.00210742 0.0121291)             (4.09231e-06 -1.66463e-06 0.0171927)
        0.085             (0.000806882 0.00123965 0.0129544)             (2.94385e-06 -7.02381e-07 0.0172623)
       0.0855             (0.000230003 0.00138932 0.0132379)             (3.60061e-06 -5.60534e-07 0.0173608)
        0.086             (-0.000487191 0.0033548 0.0122322)             (4.48474e-06 -1.50249e-06 0.0174907)
       0.0865             (-0.0011559 0.00227296 0.012505)             (4.99971e-06 -1.52417e-06 0.0175747)
        0.087             (6.17836e-05 0.00146177 0.0135038)             (4.1139e-06 -1.0201e-06 0.0176784)
       0.0875             (0.00370119 0.00229399 0.0126355)             (3.99968e-06 -8.99364e-07 0.0177943)
        0.088             (0.0144443 0.00344281 0.00647808)             (4.78587e-06 -7.94795e-07 0.0178644)
       0.0885             (0.00434808 0.00361013 0.0202456)             (4.82791e-06 -1.48913e-06 0.017948)
        0.089             (0.000796985 0.00155809 0.016594)             (5.06359e-06 -1.29262e-06 0.0179334)
       0.0895             (-0.000374266 0.00246378 0.0161145)             (4.8787e-06 -2.06496e-06 0.0181897)
         0.09             (-0.00194157 0.00305023 0.0159952)             (5.69212e-06 -2.4452e-06 0.0183642)
       0.0905             (0.0029041 0.00388465 0.0146023)             (6.39896e-06 -1.38742e-06 0.0183961)
        0.091             (0.00105915 0.0019984 0.0147747)             (6.53415e-06 -8.82939e-07 0.0184123)
       0.0915             (3.20117e-06 0.00220632 0.0144331)             (5.14351e-06 -2.02151e-06 0.0184173)
        0.092             (-0.000444893 0.00306934 0.0153499)             (4.39563e-06 -2.3695e-06 0.0185953)
       0.0925             (0.000843135 0.00412486 0.0151034)             (3.63556e-06 -2.28969e-06 0.0187519)
        0.093             (0.00220897 0.00452908 0.0132092)             (4.7686e-06 -2.20236e-06 0.018829)
       0.0935             (0.0038693 0.00262652 0.0129077)             (4.07937e-06 -2.26372e-06 0.0188693)
        0.094             (-0.000504424 0.00173185 0.0155151)             (2.13804e-06 -2.51373e-06 0.018905)
       0.0945             (0.000408438 0.00285915 0.0141379)             (2.39868e-06 -3.31758e-06 0.0190377)
        0.095             (0.00178432 0.00459658 0.012689)             (2.58337e-06 -4.33735e-06 0.0191914)
       0.0955             (0.000754172 0.00752085 0.0122461)             (4.12151e-06 -5.59885e-06 0.0193093)
        0.096             (-0.00153491 0.00257262 0.013623)             (6.95145e-06 -2.66888e-06 0.0193453)
       0.0965             (-9.67085e-06 0.00105012 0.0131358)             (2.50681e-06 -2.8157e-06 0.0192849)
        0.097             (0.000585673 0.00123268 0.0130828)             (2.76725e-06 -2.78052e-06 0.019525)
       0.0975             (-0.000139365 0.000745599 0.014438)             (4.13715e-06 -2.44962e-06 0.0197156)
        0.098             (0.00124647 0.00327394 0.0128929)             (4.11089e-06 -2.37791e-06 0.0197948)
       0.0985             (-9.55613e-05 0.0021884 0.0124757)             (3.99206e-06 -3.4037e-06 0.0198211)
        0.099             (-0.00158977 0.000466093 0.0132971)             (3.82752e-06 -5.12719e-06 0.0198709)
       0.0995             (0.00174387 0.00437373 0.0116376)             (2.27314e-06 -7.06114e-06 0.0200051)
          0.1             (0.00148067 0.00243566 0.0118532)             (2.88612e-06 -4.3971e-06 0.0200673)
