# Probe 0 (3e-05 0 0.0001)
# Probe 1 (3e-05 0 0.0529)
#       Probe             0             1
#        Time
       0.0005             (0.000456598 0.000416095 0.00163738)             (3.07722e-07 1.35985e-07 0.00215118)
        0.001             (0.0003957 0.000432791 0.00214695)             (5.67519e-07 3.50174e-07 0.00225426)
       0.0015             (0.000424066 0.000397715 0.00253691)             (4.85212e-07 6.02668e-07 0.00261482)
        0.002             (0.000376725 0.000387888 0.00250115)             (5.27246e-07 6.35322e-07 0.00264421)
       0.0025             (0.000381443 0.00043681 0.00247705)             (7.21552e-07 9.37847e-07 0.00269489)
        0.003             (0.000278685 0.000469827 0.00236305)             (9.46289e-07 1.07077e-06 0.00273238)
       0.0035             (0.000214604 0.00043349 0.00229158)             (8.83867e-07 9.54529e-07 0.00280733)
        0.004             (0.000278119 0.000430166 0.00222304)             (9.60214e-07 1.0612e-06 0.00290161)
       0.0045             (0.000370393 0.000513693 0.00212604)             (1.03166e-06 1.07847e-06 0.00297403)
        0.005             (0.000340336 0.000624367 0.00198696)             (1.21384e-06 9.74166e-07 0.00303993)
       0.0055             (0.000372801 0.000580762 0.001861)             (1.31e-06 8.78085e-07 0.00310053)
        0.006             (0.000435144 0.00041064 0.0016508)             (1.24411e-06 7.19684e-07 0.00314826)
       0.0065             (0.00050015 0.00021822 0.00156955)             (1.31087e-06 8.58371e-07 0.0032194)
        0.007             (0.00046867 0.000167052 0.0015708)             (1.32132e-06 7.67883e-07 0.00329632)
       0.0075             (0.000385857 0.000161629 0.00166239)             (1.36407e-06 9.37911e-07 0.00339053)
        0.008             (0.000399989 0.000249576 0.0018032)             (1.37313e-06 1.29918e-06 0.00347925)
       0.0085             (0.000228526 0.000289527 0.00199997)             (1.41764e-06 1.32144e-06 0.0035762)
        0.009             (0.000105897 0.000256453 0.0022245)             (1.5416e-06 1.43364e-06 0.00368492)
       0.0095             (0.000119401 0.000298909 0.00242962)             (1.60167e-06 1.5014e-06 0.00378586)
         0.01             (0.000237464 0.000477927 0.00259432)             (1.58316e-06 1.24216e-06 0.00388322)
       0.0105             (0.000136019 0.000377612 0.00288521)             (1.64128e-06 1.16781e-06 0.00398114)
        0.011             (0.000161839 0.000538983 0.00308816)             (1.48829e-06 1.24988e-06 0.00408772)
       0.0115             (0.000365572 0.000511905 0.00331851)             (1.40883e-06 1.28843e-06 0.00419284)
        0.012             (0.000344688 0.000567121 0.00356357)             (1.4131e-06 1.21315e-06 0.00429142)
       0.0125             (0.000341845 0.00101749 0.00321298)             (1.5292e-06 9.24739e-07 0.00436489)
        0.013             (0.000658896 0.000643929 0.00328096)             (1.31624e-06 7.22912e-07 0.00443926)
       0.0135             (0.000251788 0.000508138 0.00371361)             (1.32286e-06 5.86173e-07 0.00451325)
        0.014             (0.000314113 0.000729466 0.00346294)             (1.31877e-06 3.83912e-07 0.00461034)
       0.0145             (0.000431157 0.000726634 0.00331642)             (1.153e-06 1.6167e-08 0.00471642)
        0.015             (0.000394019 0.000502187 0.00349776)             (1.08162e-06 6.84556e-08 0.0047875)
       0.0155             (0.000471696 0.000572793 0.00351529)             (1.13624e-06 -1.62055e-07 0.0048878)
        0.016             (0.000387252 0.000792157 0.00348754)             (1.02779e-06 -1.129e-07 0.00500316)
       0.0165             (0.000550571 0.000673212 0.00358424)             (1.01924e-06 -3.67288e-07 0.00510243)
        0.017             (0.000613731 0.000679844 0.00359435)             (9.99023e-07 -4.4178e-07 0.00517974)
       0.0175             (0.00075829 0.000640977 0.00356521)             (9.48422e-07 -3.45969e-07 0.0052719)
        0.018             (0.000869345 0.00068111 0.00357534)             (9.75483e-07 -5.88714e-07 0.00538875)
       0.0185             (0.000847078 0.000771572 0.00361244)             (1.27148e-06 -7.34309e-07 0.00548413)
        0.019             (0.000918759 0.000659451 0.00342356)             (1.42056e-06 -4.45919e-07 0.00556973)
       0.0195             (0.000907023 0.000692465 0.00330285)             (1.3616e-06 -2.18659e-07 0.00565595)
         0.02             (0.00100754 0.000755704 0.00337556)             (1.08992e-06 -1.67591e-07 0.00575562)
       0.0205             (0.00112095 0.000746975 0.00337995)             (1.0679e-06 8.91625e-08 0.00583694)
        0.021             (0.00129563 0.000735372 0.00312336)             (1.12175e-06 1.62805e-07 0.00592954)
       0.0215             (0.00147917 0.00082014 0.00291253)             (1.03359e-06 6.84914e-08 0.00601827)
        0.022             (0.00141634 0.000804425 0.00288928)             (1.01643e-06 2.07539e-07 0.00610946)
       0.0225             (0.00137908 0.000848551 0.00288645)             (8.8433e-07 4.04271e-07 0.00620985)
        0.023             (0.00196637 0.00102193 0.00234051)             (8.77881e-07 1.27526e-07 0.00631513)
       0.0235             (0.00161671 0.000907952 0.00241034)             (9.89586e-07 2.22619e-07 0.00639426)
        0.024             (0.00164244 0.000782019 0.00247722)             (9.08174e-07 3.12942e-07 0.0064482)
       0.0245             (0.00171953 0.000784872 0.00219841)             (2.89448e-09 2.65305e-07 0.00655485)
        0.025             (0.00189479 0.000917778 0.00188813)             (7.9384e-07 7.92927e-08 0.00667703)
       0.0255             (0.00182558 0.000949521 0.00185527)             (1.13975e-06 9.01087e-08 0.00675038)
        0.026             (0.00203646 0.000908234 0.00180124)             (6.07689e-07 2.38532e-07 0.00682179)
       0.0265             (0.00196672 0.000984283 0.0015511)             (6.79628e-07 1.86081e-07 0.00693071)
        0.027             (0.00120335 0.000523527 0.00238167)             (9.84615e-07 -1.14912e-07 0.0070449)
       0.0275             (0.000993633 0.00106965 0.00288947)             (8.45379e-07 -2.23319e-07 0.00711066)
        0.028             (0.00113588 0.00113692 0.00326844)             (3.83092e-07 -2.5591e-08 0.00719171)
       0.0285             (0.00131274 0.00127979 0.00341453)             (2.93223e-07 -1.1512e-07 0.00730629)
        0.029             (0.0013051 0.00118266 0.00361203)             (8.25574e-07 -2.98997e-07 0.00739943)
       0.0295             (0.00105936 0.0012403 0.00391296)             (7.80914e-07 -2.37182e-07 0.00746735)
         0.03             (0.00103618 0.00122044 0.00395193)             (1.54125e-07 1.65389e-07 0.00755417)
       0.0305             (0.00117776 0.00102963 0.0036625)             (-4.82689e-07 -2.39525e-08 0.00766193)
        0.031             (0.000796939 0.000723226 0.00361671)             (5.49727e-07 -3.30483e-07 0.00775724)
       0.0315             (0.000607747 0.00055096 0.00335054)             (7.32418e-07 -2.20602e-07 0.00782071)
        0.032             (0.00126336 0.000663449 0.0031653)             (-8.58481e-07 -3.56142e-08 0.00791711)
       0.0325             (0.0011688 0.000473127 0.0035655)             (-3.88811e-07 -5.54099e-07 0.00802904)
        0.033             (0.000697063 0.000466789 0.0041135)             (7.01756e-07 -4.59897e-07 0.00812824)
       0.0335             (0.000663138 0.000839142 0.00438293)             (7.1179e-07 -3.7922e-07 0.00821098)
        0.034             (0.000949102 0.000693415 0.00486953)             (-6.24103e-07 -1.54335e-07 0.00830572)
       0.0345             (0.000868545 0.000500871 0.005272)             (3.19747e-07 -8.57339e-08 0.00841342)
        0.035             (0.000997444 0.000809304 0.0051021)             (7.84635e-07 -1.75894e-07 0.00850361)
       0.0355             (0.000556827 0.000699315 0.0053136)             (7.43617e-07 -3.91855e-08 0.00857318)
        0.036             (0.000314473 0.000447546 0.00580908)             (7.45161e-07 -2.29122e-07 0.00865613)
       0.0365             (0.000210712 0.000381008 0.00588899)             (1.34153e-06 4.06817e-07 0.00877873)
        0.037             (0.000809077 0.000501472 0.0057269)             (1.18148e-06 1.78572e-07 0.00888299)
       0.0375             (0.00064841 0.000477325 0.00624503)             (1.11323e-06 2.98768e-08 0.00895118)
        0.038             (0.000630519 0.000447975 0.00652787)             (1.23682e-06 9.86237e-08 0.00902301)
       0.0385             (0.000790774 0.000384874 0.00612358)             (1.3386e-06 -4.54668e-08 0.00914066)
        0.039             (0.000978382 0.00067724 0.00573928)             (1.32243e-06 -1.81074e-07 0.00924393)
       0.0395             (0.000756787 0.000609295 0.00647026)             (1.42601e-06 -1.09095e-07 0.00932209)
         0.04             (0.000837461 0.000589718 0.00694827)             (1.84864e-06 -2.76325e-07 0.00939141)
       0.0405             (0.00300397 0.000548199 0.00601941)             (1.24631e-06 -7.40516e-07 0.00949577)
        0.041             (0.000440117 0.00103391 0.00670928)             (1.38568e-06 -4.86976e-07 0.00960938)
       0.0415             (0.000982002 0.000730638 0.00699094)             (1.66091e-06 -4.80229e-07 0.00966584)
        0.042             (0.000762887 0.00069338 0.0072599)             (1.78449e-06 -3.82607e-07 0.00977343)
       0.0425             (0.000532918 0.00085509 0.00709911)             (1.56795e-06 -5.79507e-07 0.00988067)
        0.043             (0.000784777 0.00112272 0.00681901)             (1.58725e-06 -7.32324e-07 0.00998023)
       0.0435             (0.000918813 0.000869417 0.00703183)             (1.31224e-06 -3.01256e-07 0.0100656)
        0.044             (0.000502581 0.000943781 0.00725064)             (1.23017e-06 -1.97132e-07 0.0101389)
       0.0445             (0.000296435 0.00117157 0.00696421)             (1.49368e-06 -1.17449e-06 0.0102223)
        0.045             (0.000640431 0.000990466 0.0068138)             (1.27275e-06 -8.28177e-07 0.0103176)
       0.0455             (0.000769279 0.000811594 0.00706981)             (9.16589e-07 -3.30554e-07 0.0104165)
        0.046             (0.000608528 0.000992316 0.0071568)             (1.16406e-06 -3.40469e-07 0.0104886)
       0.0465             (0.00063809 0.0011733 0.00683747)             (1.35607e-06 -4.00522e-07 0.0105772)
        0.047             (0.00117956 0.000998455 0.00664744)             (5.03235e-07 1.6372e-07 0.0106733)
       0.0475             (0.00117753 0.000898391 0.00718413)             (3.6817e-08 2.67408e-07 0.0107609)
        0.048             (0.000633713 0.00113917 0.00720601)             (1.26727e-06 -1.09235e-07 0.0108319)
       0.0485             (0.000776697 0.00113151 0.00685042)             (1.37951e-06 -1.6842e-07 0.0109157)
        0.049             (0.00102983 0.00121527 0.00686784)             (7.64045e-07 4.32225e-09 0.0110228)
       0.0495             (0.00115272 0.00102923 0.00724146)             (3.07163e-07 1.32753e-07 0.0111432)
         0.05             (0.00100454 0.00111488 0.00711398)             (1.24199e-06 -1.42603e-07 0.0112321)
       0.0505             (0.00124056 0.0011064 0.00690579)             (1.70108e-06 -1.69337e-08 0.0113196)
        0.051             (0.00109139 0.000876891 0.00738765)             (8.27351e-07 2.08258e-07 0.0113936)
       0.0515             (0.0010576 0.000668186 0.00743435)             (8.64382e-07 3.39764e-07 0.011466)
        0.052             (0.000842468 0.00101994 0.00710538)             (1.4531e-06 -2.19508e-08 0.011573)
       0.0525             (0.000729797 0.00121969 0.00700372)             (1.25084e-06 -5.94184e-08 0.0116643)
        0.053             (0.000722271 0.00104656 0.00729264)             (1.02994e-06 1.11483e-07 0.0117433)
       0.0535             (0.00101526 0.0011558 0.00720351)             (5.6623e-07 2.38169e-07 0.0118359)
        0.054             (0.00158431 0.000438748 0.00658206)             (7.76769e-07 4.95732e-07 0.0119417)
       0.0545             (0.00123978 0.00116309 0.00686382)             (1.20888e-06 -2.39358e-07 0.0120165)
        0.055             (0.000706863 0.00116596 0.00715851)             (1.24292e-06 -3.99664e-07 0.012064)
       0.0555             (0.00125718 0.00107212 0.006871)             (3.90157e-07 8.00415e-08 0.0121636)
        0.056             (0.00207868 0.000902192 0.00661711)             (-9.0581e-07 5.2192e-07 0.0123173)
       0.0565             (0.00175032 0.00104155 0.00687215)             (7.39231e-07 1.4237e-07 0.0124051)
        0.057             (0.00100973 0.00122539 0.00751028)             (1.25453e-06 1.9693e-07 0.0124528)
       0.0575             (0.00170416 0.00148705 0.00777819)             (-1.31498e-06 6.58852e-07 0.012509)
        0.058             (0.0013393 0.00163839 0.0085339)             (7.11001e-07 -6.02294e-09 0.0126056)
       0.0585             (0.00111422 0.00141788 0.00910441)             (1.17034e-06 7.2618e-10 0.0127005)
        0.059             (0.00114773 0.00157271 0.0087954)             (1.09158e-06 2.90796e-07 0.0127769)
       0.0595             (0.00110187 0.00298814 0.00911268)             (9.79184e-07 3.54433e-07 0.0128626)
         0.06             (0.00105779 0.00139187 0.00975099)             (1.38783e-06 8.76365e-07 0.0129364)
       0.0605             (0.000662827 0.00156173 0.00976378)             (1.46127e-06 8.75686e-07 0.0130083)
        0.061             (0.00110991 0.00191376 0.00976026)             (1.07992e-06 4.30826e-07 0.0130812)
       0.0615             (0.00208234 0.00230018 0.0100124)             (9.20108e-07 4.60741e-07 0.0131693)
        0.062             (0.00389503 0.00466313 0.0108186)             (-1.51442e-06 1.48397e-06 0.0132554)
       0.0625             (0.000996405 0.00158395 0.0124672)             (2.52566e-07 1.6986e-06 0.0133144)
        0.063             (-0.000186664 0.00179871 0.0110483)             (1.63722e-06 6.8172e-07 0.013328)
       0.0635             (0.00129924 0.00172447 0.00993123)             (1.25895e-06 4.23176e-07 0.0134157)
        0.064             (0.000982414 0.00229866 0.0107669)             (1.47849e-06 7.45268e-07 0.0135398)
       0.0645             (0.00119315 0.00240736 0.0119351)             (8.4219e-07 6.09156e-07 0.0135835)
        0.065             (0.00162103 0.00244786 0.0110601)             (1.25485e-06 -3.39322e-07 0.0136414)
       0.0655             (0.00186093 0.00434864 0.0107709)             (1.67363e-06 3.43492e-07 0.0137177)
        0.066             (0.000975631 0.00432258 0.0116538)             (1.47143e-06 3.4019e-07 0.0137885)
       0.0665             (0.000679347 0.00223031 0.0123386)             (6.66536e-07 -1.09834e-06 0.0138555)
        0.067             (0.000942577 0.00162713 0.0119152)             (9.11586e-08 -7.89194e-07 0.0139588)
       0.0675             (0.00330691 0.00221741 0.0106702)             (8.90963e-07 1.01927e-07 0.0140756)
        0.068             (0.00160537 0.00258022 0.012236)             (1.73822e-06 -5.53508e-08 0.0141457)
       0.0685             (0.000345125 0.0019874 0.0128953)             (2.06976e-06 -2.59185e-07 0.0141991)
        0.069             (-0.000429693 0.00145922 0.0132864)             (2.88473e-06 -2.8835e-07 0.0143152)
       0.0695             (-0.00134268 0.00970406 0.017074)             (4.32068e-06 -2.99071e-07 0.0144522)
         0.07             (0.000423703 0.00167641 0.0140821)             (1.86936e-06 -2.49256e-07 0.0145548)
       0.0705             (-0.000403258 0.00179052 0.0116859)             (1.4576e-06 -5.01769e-07 0.0145739)
        0.071             (-0.000261558 0.00137626 0.0113883)             (1.32632e-06 -1.25495e-06 0.0147266)
       0.0715             (0.000227251 0.00139267 0.0116575)             (7.89704e-07 -2.32497e-06 0.0148732)
        0.072             (0.00301822 0.00251002 0.0103269)             (1.08591e-06 -2.47327e-06 0.0149593)
       0.0725             (-2.83845e-05 0.00374858 0.0117077)             (8.70345e-07 -1.94753e-06 0.0149835)
        0.073             (-0.000164381 0.00220384 0.0130396)             (9.61888e-07 -1.24612e-06 0.0149684)
       0.0735             (0.000850549 0.00197558 0.0140433)             (-7.1612e-07 -1.54367e-06 0.0151175)
        0.074             (0.00247041 0.00415612 0.0146548)             (2.42548e-06 -2.49158e-07 0.0153087)
       0.0745             (-0.00151899 0.00216227 0.0156343)             (3.90148e-06 -1.78045e-07 0.0154148)
        0.075             (-0.000989888 0.00243771 0.0155842)             (2.93983e-06 -9.59423e-07 0.0154251)
       0.0755             (-0.000527583 0.00245002 0.0165093)             (2.06394e-06 -1.63125e-06 0.0155694)
        0.076             (-0.00104272 0.0034085 0.018914)             (2.79105e-06 -1.48879e-07 0.01573)
       0.0765             (0.000463551 0.00622163 0.0186807)             (2.64587e-06 -1.17161e-06 0.0158134)
        0.077             (-0.000512951 0.00427784 0.018622)             (3.4349e-06 -3.1266e-06 0.0158543)
       0.0775             (-0.000884108 0.0034366 0.0198608)             (3.08122e-06 -6.2567e-06 0.0158925)
        0.078             (-0.000789847 0.00223022 0.0204755)             (3.45261e-06 -3.04474e-06 0.0160608)
       0.0785             (0.00164973 0.00419936 0.0203498)             (3.55609e-06 -1.63128e-06 0.0162084)
        0.079             (0.00236067 0.00759605 0.0243532)             (2.09716e-06 -3.1442e-06 0.0162763)
       0.0795             (-0.00118236 0.00271117 0.0221347)             (2.78713e-06 -2.28824e-06 0.0163044)
         0.08             (-0.00148673 0.00178412 0.0193311)             (3.09155e-06 -2.04878e-06 0.0163593)
       0.0805             (7.95794e-05 0.00128009 0.0202579)             (3.47414e-06 -3.5811e-07 0.0165588)
        0.081             (-0.000429366 0.00316947 0.0225173)             (3.48732e-06 -2.80736e-06 0.0167106)
       0.0815             (3.34077e-05 0.00440914 0.0198721)             (2.32635e-06 -1.64112e-06 0.0167395)
        0.082             (0.000197406 0.00444976 0.0187106)             (2.39141e-06 -6.41384e-07 0.0168032)
       0.0825             (0.00481314 0.00249908 0.0159125)             (2.95708e-06 5.89233e-08 0.016892)
        0.083             (-0.000677653 -0.000678382 0.0182104)             (3.67627e-06 3.50708e-07 0.0169697)
       0.0835             (-0.00226052 0.00115025 0.019184)             (3.54232e-06 -1.32453e-06 0.0170034)
        0.084             (-0.0022171 0.00356906 0.0191453)             (3.99119e-06 -1.36243e-06 0.0171835)
       0.0845             (0.000860564 0.00406777 0.0170222)             (3.28718e-06 -1.80574e-06 0.017345)
        0.085             (0.0013124 0.00398537 0.0181687)             (3.03581e-06 -3.6399e-06 0.0174265)
       0.0855             (-0.000704844 0.00128707 0.0176308)             (5.96675e-07 -1.95391e-06 0.0174523)
        0.086             (-0.00190037 0.000785127 0.0171544)             (3.67993e-06 8.62383e-07 0.017561)
       0.0865             (-0.00262324 0.00283043 0.0171123)             (6.34134e-06 1.52396e-06 0.0176766)
        0.087             (0.00301027 0.00694405 0.0160014)             (4.00251e-06 -2.04607e-06 0.0177561)
       0.0875             (-0.000972669 0.00345281 0.0187939)             (2.8321e-06 -2.30722e-06 0.0178533)
        0.088             (-0.00263043 0.00182287 0.0188356)             (3.33865e-06 3.02143e-08 0.0179224)
       0.0885             (-9.27329e-05 0.0080939 0.0172912)             (3.73252e-06 -1.03927e-06 0.0180854)
        0.089             (-0.00403265 0.00232715 0.0225231)             (3.4848e-06 -8.29989e-07 0.0182076)
       0.0895             (-0.00191517 0.00141422 0.0178362)             (1.09123e-06 -2.3757e-06 0.0181677)
         0.09             (0.000510218 0.00175885 0.0150342)             (-8.63885e-07 -2.23195e-06 0.0183142)
       0.0905             (0.00126872 0.00346462 0.0143774)             (-2.90256e-07 -2.38765e-06 0.0184918)
        0.091             (0.00165661 0.00430954 0.0155051)             (-3.61247e-06 -2.85906e-06 0.0185926)
       0.0915             (-0.00135993 0.00290298 0.0171419)             (6.17303e-07 -3.66091e-06 0.0186262)
        0.092             (-0.0028197 0.00111678 0.016648)             (1.83819e-06 -2.37119e-06 0.0186677)
       0.0925             (-0.00208614 0.000914457 0.0146455)             (-2.61867e-07 -1.68897e-06 0.0187905)
        0.093             (0.000518453 0.00329636 0.0160379)             (-2.13278e-07 -3.27515e-06 0.0189249)
       0.0935             (0.00203197 0.00604261 0.0164153)             (-1.6606e-06 -5.09264e-06 0.0189778)
        0.094             (-0.00194562 0.00310439 0.0166253)             (2.02816e-06 -4.00892e-06 0.0189973)
       0.0945             (-0.00281013 0.00106499 0.0178477)             (2.00327e-06 -3.76174e-06 0.019078)
        0.095             (-0.00161146 0.00135893 0.0190461)             (7.67848e-07 -4.00099e-06 0.0192593)
       0.0955             (0.00166543 0.00236915 0.018811)             (-1.47921e-06 -3.00285e-06 0.0193941)
        0.096             (-0.00185318 0.00293298 0.0191808)             (-1.31378e-06 -3.17656e-06 0.0194595)
       0.0965             (-0.00170383 0.00150267 0.018371)             (-2.54312e-07 -3.28765e-06 0.0194676)
        0.097             (-0.00206351 0.00111033 0.0179248)             (-3.45707e-07 -3.70097e-06 0.0195851)
       0.0975             (-0.000798458 0.00147745 0.0188006)             (-2.7665e-06 -5.47781e-06 0.0197885)
        0.098             (0.00297941 0.00472951 0.0178599)             (-5.0753e-06 -4.47656e-06 0.0199346)
       0.0985             (-0.0047199 0.00222263 0.0165683)             (1.42932e-06 -4.15581e-06 0.0199576)
        0.099             (-0.00426541 0.000442024 0.0154273)             (1.75496e-06 -3.45482e-06 0.0199872)
       0.0995             (-0.00128318 7.74664e-05 0.0157187)             (-1.54024e-07 -3.18036e-06 0.020077)
          0.1             (0.000964185 0.00244837 0.0163911)             (2.50432e-08 -2.97746e-06 0.0202302)
