# Probe 0 (3e-05 0 0.0001)
# Probe 1 (3e-05 0 0.0529)
#       Probe             0             1
#        Time
       0.0005             (0.000456075 0.000411087 0.0016467)             (7.85302e-07 1.03324e-07 0.00215416)
        0.001             (0.000395089 0.000425504 0.00217399)             (1.21085e-06 3.984e-07 0.00225646)
       0.0015             (0.000425751 0.000387293 0.00258397)             (1.39745e-06 5.65038e-07 0.0026252)
        0.002             (0.000382422 0.000373144 0.00256635)             (1.37003e-06 6.76222e-07 0.00264812)
       0.0025             (0.000385319 0.000429103 0.00255512)             (1.49531e-06 9.46292e-07 0.0026883)
        0.003             (0.0002871 0.00046837 0.0024534)             (1.74497e-06 9.84702e-07 0.0027159)
       0.0035             (0.000233805 0.000435687 0.00238568)             (1.71676e-06 9.00712e-07 0.00278478)
        0.004             (0.000298546 0.000436208 0.00233174)             (1.75333e-06 9.3739e-07 0.00287782)
       0.0045             (0.000382419 0.000516054 0.00225771)             (1.81793e-06 8.89887e-07 0.00297056)
        0.005             (0.000350564 0.000625063 0.00213)             (1.89703e-06 7.55435e-07 0.00305059)
       0.0055             (0.000381751 0.000584227 0.00201149)             (1.95164e-06 6.01262e-07 0.00311932)
        0.006             (0.000445833 0.000418786 0.00180878)             (1.98667e-06 5.31145e-07 0.00318273)
       0.0065             (0.000502266 0.000230318 0.00173583)             (2.02479e-06 4.96468e-07 0.00325011)
        0.007             (0.000472355 0.000176698 0.00175466)             (2.08325e-06 4.39908e-07 0.0033286)
       0.0075             (0.000390184 0.000175478 0.00186803)             (2.16486e-06 6.06142e-07 0.003424)
        0.008             (0.000411323 0.000262907 0.00203134)             (2.22671e-06 8.57723e-07 0.00351972)
       0.0085             (0.000241177 0.000306834 0.00224208)             (2.29771e-06 9.81291e-07 0.00362026)
        0.009             (0.000114554 0.000277943 0.00248366)             (2.3764e-06 1.10969e-06 0.00372383)
       0.0095             (0.000123156 0.000329991 0.00269776)             (2.45051e-06 1.2103e-06 0.00382775)
         0.01             (0.000242954 0.000557843 0.002859)             (2.48228e-06 1.02079e-06 0.00392433)
       0.0105             (0.000168764 0.000425512 0.00311248)             (2.4884e-06 1.06553e-06 0.00401706)
        0.011             (7.29351e-05 0.000611986 0.00335575)             (2.422e-06 1.11584e-06 0.00411517)
       0.0115             (0.000344728 0.000551031 0.00385266)             (2.28423e-06 1.46006e-06 0.00421675)
        0.012             (0.000497597 0.000728622 0.0037486)             (2.20491e-06 1.07762e-06 0.00431552)
       0.0125             (0.000338644 0.000739661 0.00352456)             (2.26982e-06 8.46059e-07 0.00440424)
        0.013             (0.000321876 0.000509664 0.00378037)             (2.07686e-06 7.19312e-07 0.00448457)
       0.0135             (0.000221243 0.000454854 0.00398464)             (2.04564e-06 6.93095e-07 0.0045827)
        0.014             (0.00237703 0.000428805 0.00306789)             (1.86486e-06 5.08437e-07 0.00469336)
       0.0145             (0.000550989 0.000586962 0.00406333)             (1.96934e-06 2.80746e-07 0.00477974)
        0.015             (0.000507619 0.000552112 0.00389536)             (2.02404e-06 3.19336e-07 0.00483159)
       0.0155             (0.000555311 0.000519589 0.00388838)             (1.97685e-06 2.85164e-07 0.00496931)
        0.016             (0.000391644 0.000854416 0.00394729)             (1.91075e-06 2.09729e-07 0.00507541)
       0.0165             (0.000631111 0.000770011 0.00404703)             (1.82911e-06 2.18018e-07 0.00515602)
        0.017             (0.000664533 0.000739132 0.00400203)             (1.82913e-06 1.61545e-07 0.00523998)
       0.0175             (0.000623108 0.000708837 0.00393435)             (1.85971e-06 4.03231e-08 0.0053291)
        0.018             (0.000729287 0.000724692 0.00395372)             (1.76312e-06 -1.76548e-07 0.00542237)
       0.0185             (0.000831549 0.000796922 0.00394106)             (1.71414e-06 -1.9993e-07 0.00551877)
        0.019             (0.00096786 0.000728159 0.00372492)             (1.74691e-06 -3.68865e-08 0.00560496)
       0.0195             (0.00103643 0.000754862 0.00361243)             (1.7689e-06 1.51807e-08 0.00569366)
         0.02             (0.00103586 0.00079606 0.00365583)             (1.71852e-06 1.83354e-09 0.00578462)
       0.0205             (0.00105162 0.000812201 0.00356486)             (1.61554e-06 3.81209e-08 0.00588005)
        0.021             (0.00159451 0.000794056 0.00323118)             (1.55801e-06 9.17272e-08 0.00597838)
       0.0215             (0.00159536 0.000809689 0.00318967)             (1.49762e-06 7.96552e-09 0.00606824)
        0.022             (0.00138099 0.000830524 0.00317495)             (1.50842e-06 2.02328e-08 0.00615134)
       0.0225             (0.00135489 0.000874483 0.0029316)             (1.44228e-06 2.01726e-07 0.00624903)
        0.023             (0.00127697 0.00114157 0.00260207)             (1.41818e-06 1.85374e-07 0.00634964)
       0.0235             (0.00152458 0.000743929 0.00269739)             (1.38333e-06 3.1679e-07 0.00643872)
        0.024             (0.00157336 0.000828396 0.00263093)             (1.28932e-06 3.71993e-07 0.00651682)
       0.0245             (0.00171977 0.000921452 0.00233084)             (1.25566e-06 4.08593e-07 0.00662101)
        0.025             (0.0019343 0.000956387 0.00208554)             (9.53535e-07 6.04202e-07 0.00672193)
       0.0255             (0.00195128 0.000903385 0.00212889)             (9.42839e-07 5.74337e-07 0.00680755)
        0.026             (0.00196635 0.00095987 0.00195926)             (1.47914e-06 5.03776e-07 0.00687928)
       0.0265             (0.00171907 0.000843257 0.00212551)             (1.46982e-06 5.70776e-07 0.00698331)
        0.027             (0.00100518 0.000988286 0.0028676)             (1.32453e-06 5.9961e-07 0.0071005)
       0.0275             (0.00110233 0.001074 0.00329377)             (1.33305e-06 5.67192e-07 0.00719617)
        0.028             (0.00115544 0.00112844 0.00368112)             (1.31088e-06 4.09233e-07 0.00728253)
       0.0285             (0.00105778 0.00153429 0.00397711)             (1.33593e-06 2.7845e-07 0.00736923)
        0.029             (0.00111003 0.00106816 0.00444155)             (1.15451e-06 4.73363e-07 0.00745926)
       0.0295             (0.00114971 0.00116195 0.00439962)             (9.84895e-07 4.97938e-07 0.00754764)
         0.03             (0.000909259 0.00127531 0.00413701)             (1.21469e-06 3.40839e-07 0.00764837)
       0.0305             (0.00055219 0.00120668 0.00412864)             (1.40461e-06 3.69403e-07 0.00773145)
        0.031             (0.000675395 0.000571674 0.00408188)             (9.84643e-07 3.70352e-07 0.00782045)
       0.0315             (0.000826798 0.000667424 0.00372538)             (5.85095e-07 2.18296e-07 0.00791472)
        0.032             (0.00110882 0.00103979 0.00367382)             (1.1943e-06 1.17806e-07 0.00801784)
       0.0325             (0.000903923 0.000674582 0.00434751)             (1.5062e-06 -5.79941e-07 0.00810974)
        0.033             (0.00079599 0.000662509 0.00487558)             (1.07584e-06 -1.96895e-07 0.00819413)
       0.0335             (0.000913303 0.000925565 0.00519451)             (6.51465e-07 2.1602e-08 0.00829282)
        0.034             (0.000994641 0.000960558 0.00554441)             (1.0418e-06 -2.80716e-07 0.00839749)
       0.0345             (0.000879355 0.000736864 0.0059526)             (1.21888e-06 -1.2098e-07 0.0084877)
        0.035             (0.000900056 0.000662229 0.00609841)             (9.10431e-07 2.77337e-08 0.00857234)
       0.0355             (0.000435368 0.0009528 0.00605537)             (7.97273e-07 1.92953e-07 0.00866737)
        0.036             (0.000362274 0.000527009 0.00631683)             (1.24107e-06 1.39578e-07 0.00876287)
       0.0365             (0.000380667 0.000567122 0.00675293)             (1.33453e-06 1.49394e-07 0.00883662)
        0.037             (0.000702064 0.000579717 0.00671792)             (1.25169e-06 9.37252e-08 0.00892808)
       0.0375             (0.000473247 0.000699166 0.00637083)             (1.24047e-06 1.92524e-07 0.00903016)
        0.038             (0.000530182 0.000427461 0.00672546)             (1.55521e-06 1.54547e-07 0.00911958)
       0.0385             (0.000539293 0.000524352 0.00702294)             (1.69409e-06 3.13471e-07 0.00919765)
        0.039             (0.000692724 0.000537796 0.00692375)             (1.58708e-06 3.7331e-07 0.00931007)
       0.0395             (0.00129154 0.000712703 0.00659346)             (1.51524e-06 2.56605e-07 0.00941704)
         0.04             (0.000911821 0.000668441 0.00721627)             (1.65743e-06 1.20259e-07 0.00950302)
       0.0405             (0.000733137 0.000621757 0.00750122)             (1.79901e-06 1.80222e-07 0.00957036)
        0.041             (0.000938522 0.000616206 0.00729107)             (1.64987e-06 8.5846e-08 0.00967408)
       0.0415             (0.00119902 0.00072735 0.00705815)             (1.3025e-06 1.70665e-07 0.00977503)
        0.042             (0.00139989 0.00068138 0.00748753)             (1.912e-07 4.40728e-07 0.0098672)
       0.0425             (0.00081028 0.000781656 0.00787225)             (1.47836e-06 3.90563e-07 0.00995074)
        0.043             (0.000465965 0.000920229 0.00743673)             (1.88402e-06 2.61847e-07 0.010038)
       0.0435             (0.0011773 0.00104586 0.00708674)             (1.33507e-06 4.19492e-07 0.0101233)
        0.044             (0.00102712 0.00100052 0.00779669)             (1.06826e-06 3.4989e-07 0.0102245)
       0.0445             (0.000710851 0.00105372 0.00808216)             (1.68256e-06 7.65674e-08 0.0103149)
        0.045             (0.00075321 0.00116602 0.00760048)             (1.76462e-06 2.57164e-07 0.0104179)
       0.0455             (0.000793567 0.00111525 0.00730208)             (1.68229e-06 2.89724e-07 0.0105107)
        0.046             (0.000632023 0.000894114 0.00792997)             (1.76343e-06 2.10097e-08 0.0105893)
       0.0465             (0.000554514 0.000935251 0.00808333)             (1.70105e-06 1.88066e-07 0.0106735)
        0.047             (0.000606935 0.00124226 0.0077258)             (1.68838e-06 2.26254e-07 0.0107793)
       0.0475             (0.000919408 0.00127053 0.00739658)             (1.73492e-06 1.83138e-07 0.010862)
        0.048             (0.000733911 0.000876474 0.00820982)             (1.65727e-06 2.09213e-07 0.0109299)
       0.0485             (0.000633136 0.000991006 0.00817403)             (1.57499e-06 -2.56495e-08 0.0110081)
        0.049             (0.00102169 0.00108516 0.00759283)             (1.60675e-06 9.30264e-08 0.0111267)
       0.0495             (0.000890494 0.00139728 0.00756992)             (1.61827e-06 1.78142e-07 0.0112358)
         0.05             (0.000705767 0.00103015 0.00827847)             (1.59217e-06 1.63088e-07 0.0113181)
       0.0505             (0.000642017 0.00098841 0.00826061)             (1.28234e-06 4.1666e-07 0.0113943)
        0.051             (0.00109627 0.00104522 0.00790901)             (1.14577e-06 4.02959e-07 0.0115008)
       0.0515             (0.00174091 0.00128014 0.0077141)             (6.22788e-07 4.13687e-07 0.0115974)
        0.052             (0.000815563 0.00100263 0.00873863)             (5.30827e-07 3.9247e-07 0.0116625)
       0.0525             (0.000629051 0.000900086 0.00887145)             (9.60025e-07 4.67624e-07 0.0117193)
        0.053             (0.000578661 0.00112503 0.00821997)             (1.3953e-06 2.25463e-07 0.0118318)
       0.0535             (0.000534249 0.00168996 0.00768751)             (6.68315e-07 2.39614e-07 0.0119439)
        0.054             (0.00114811 0.00119196 0.00833579)             (-1.46249e-07 2.68309e-07 0.0120354)
       0.0545             (0.000745527 0.00141928 0.00835961)             (9.66532e-07 -1.68378e-07 0.0121085)
        0.055             (0.000716678 0.00117476 0.00806484)             (1.67256e-06 3.68613e-07 0.0122179)
       0.0555             (-0.00089131 0.00392004 0.00811943)             (1.08056e-06 4.26217e-07 0.0123131)
        0.056             (0.00117322 0.0015589 0.00840334)             (4.57867e-07 8.99127e-10 0.0123876)
       0.0565             (0.000573123 0.00151785 0.00801897)             (8.48315e-07 1.17237e-07 0.0124089)
        0.057             (0.000968947 0.00112491 0.00802382)             (1.34291e-06 2.77324e-07 0.0125289)
       0.0575             (0.00243372 0.00103933 0.00774047)             (8.7736e-07 4.80675e-07 0.0126695)
        0.058             (0.00235351 0.000979519 0.008166)             (-3.42475e-08 1.07919e-06 0.0127668)
       0.0585             (0.00146558 0.00132379 0.00877294)             (3.54563e-07 9.44591e-07 0.0128206)
        0.059             (0.00145822 0.00136801 0.00871745)             (1.15967e-06 4.60093e-07 0.0128798)
       0.0595             (0.00177346 0.00130338 0.00858929)             (1.23071e-06 4.8664e-07 0.0129622)
         0.06             (0.00264957 0.00133356 0.00877603)             (-3.98431e-07 1.26945e-06 0.0130584)
       0.0605             (0.00215273 0.00241623 0.00958694)             (-2.71681e-07 1.10539e-06 0.0131462)
        0.061             (0.00116038 0.00219301 0.0100698)             (1.32158e-06 4.32594e-07 0.0132114)
       0.0615             (0.000953316 0.00194773 0.0101018)             (1.54361e-06 5.57076e-07 0.0132447)
        0.062             (0.00139121 0.00244838 0.0108512)             (8.34499e-07 1.04201e-06 0.0133248)
       0.0625             (0.00321798 0.00189479 0.0108474)             (5.65685e-08 1.16434e-06 0.0134014)
        0.063             (0.00189917 0.00212267 0.0112175)             (1.01665e-06 8.76605e-07 0.0134468)
       0.0635             (0.000625671 0.00220001 0.0117106)             (2.40512e-06 1.29382e-06 0.0134702)
        0.064             (0.000835927 0.00241636 0.0122395)             (1.9244e-06 1.42873e-06 0.0135448)
       0.0645             (0.00192796 0.00234694 0.0125066)             (7.58278e-07 1.77838e-06 0.0136261)
        0.065             (0.00255686 0.00634325 0.0138451)             (-8.68637e-07 1.63208e-06 0.0137124)
       0.0655             (0.000543566 0.00267331 0.0139598)             (1.0287e-06 1.0878e-06 0.013777)
        0.066             (-0.000230094 0.00196376 0.013567)             (1.33123e-06 9.31399e-07 0.0138319)
       0.0665             (0.00134061 0.00136577 0.0128232)             (6.2242e-07 5.31994e-07 0.0139577)
        0.067             (0.000910002 0.00189094 0.0132571)             (7.94519e-07 -3.70748e-07 0.0140776)
       0.0675             (0.000193656 0.00262524 0.0135666)             (1.76252e-06 -1.75169e-07 0.0141464)
        0.068             (4.7966e-05 0.00249348 0.0135751)             (1.81924e-06 7.78605e-08 0.014249)
       0.0685             (0.000177144 0.0023868 0.0146797)             (1.63706e-06 1.4965e-07 0.0143433)
        0.069             (0.000955782 0.00738856 0.0165558)             (6.89188e-07 -3.87894e-08 0.0144385)
       0.0695             (0.00116908 0.00249293 0.0144319)             (4.42991e-07 -8.58269e-07 0.0145438)
         0.07             (-0.000311858 0.00226491 0.013402)             (1.50568e-06 -1.13953e-06 0.0145746)
       0.0705             (-0.000118068 0.00171783 0.0132444)             (1.30861e-06 -1.4861e-06 0.0147009)
        0.071             (-3.99621e-05 0.000986141 0.0137943)             (7.03703e-07 1.10745e-07 0.014841)
       0.0715             (0.00434588 0.00243853 0.0112961)             (4.22311e-07 -1.03002e-06 0.0149427)
        0.072             (0.000188303 0.00226383 0.0126468)             (3.17511e-06 -3.18414e-07 0.0149727)
       0.0725             (-0.000310279 0.0020864 0.0138189)             (2.31015e-06 -9.69424e-07 0.0150458)
        0.073             (0.000777789 0.00264797 0.0140444)             (1.03675e-06 -1.15577e-06 0.0152134)
       0.0735             (0.00240233 0.00508987 0.0122952)             (2.04428e-07 -2.00796e-06 0.0153398)
        0.074             (0.00221987 0.00462697 0.0141093)             (7.35445e-07 -2.19577e-06 0.0153976)
       0.0745             (0.000223328 0.00216011 0.014559)             (1.40582e-06 -2.17789e-06 0.0154167)
        0.075             (0.000281558 0.00191753 0.0132213)             (8.43589e-07 -2.88495e-06 0.0155343)
       0.0755             (0.00266827 0.00322972 0.0120398)             (-1.96289e-07 -3.76672e-06 0.0156794)
        0.076             (0.000230338 0.00408479 0.0182124)             (2.61922e-07 -1.09303e-06 0.0157809)
       0.0765             (-0.00106707 0.00241436 0.0145639)             (1.24246e-06 -1.6782e-06 0.0158395)
        0.077             (-0.000992401 0.00231053 0.0136278)             (1.58422e-06 -1.9118e-06 0.0159074)
       0.0775             (-0.000521659 0.00215681 0.0144894)             (2.45932e-07 -1.63681e-06 0.0160562)
        0.078             (0.000683513 0.00226871 0.0165986)             (-2.78212e-06 -1.83065e-06 0.016192)
       0.0785             (0.000480734 0.00429026 0.0157205)             (-1.602e-07 -2.07133e-06 0.0162506)
        0.079             (-0.00125718 0.00337345 0.0160715)             (2.03723e-06 -1.98761e-06 0.0162732)
       0.0795             (-0.00193147 0.00219441 0.0193734)             (9.32282e-07 -2.00144e-06 0.0163443)
         0.08             (0.0017261 0.00231274 0.0174036)             (-3.0847e-06 -9.46196e-07 0.0164845)
       0.0805             (-0.0013957 0.00160471 0.0167329)             (8.06464e-07 -1.10137e-06 0.0165989)
        0.081             (-0.00355807 0.00156084 0.0185249)             (3.52999e-06 -1.09231e-06 0.0166568)
       0.0815             (-0.00316993 0.00223408 0.0210386)             (2.51677e-06 -1.88816e-06 0.0167684)
        0.082             (-0.0021354 0.0026815 0.0187113)             (1.87395e-06 -3.45745e-06 0.0168733)
       0.0825             (-0.00089048 0.00443749 0.0179277)             (2.38036e-06 -3.20398e-06 0.0169775)
        0.083             (-0.00196101 0.00284095 0.0198094)             (1.84499e-06 -2.52551e-06 0.0170504)
       0.0835             (-0.00326558 0.00298685 0.0256504)             (1.90579e-06 -3.72228e-06 0.0171444)
        0.084             (-0.00308676 0.0227539 0.0237706)             (3.89723e-06 -3.36654e-06 0.0172697)
       0.0845             (-0.00370849 0.00496085 0.0218919)             (2.74539e-06 -2.57264e-06 0.0173478)
        0.085             (-0.00300096 0.00109341 0.0188659)             (2.21406e-06 -2.29255e-06 0.0173158)
       0.0855             (-0.00319938 -0.000105511 0.0198491)             (2.25413e-06 -2.69038e-06 0.0175154)
        0.086             (-0.00306394 0.000434189 0.0193447)             (2.77665e-06 -3.96588e-06 0.0176873)
       0.0865             (0.000593863 0.00185744 0.0171229)             (3.64548e-06 -3.81548e-06 0.0177498)
        0.087             (-0.00110664 0.0047084 0.01972)             (1.43419e-06 -4.44328e-06 0.0177864)
       0.0875             (-0.0039421 0.00257137 0.0218076)             (3.92312e-06 -4.5783e-06 0.0177878)
        0.088             (-0.00346625 0.00243621 0.0186764)             (3.70623e-06 -4.22227e-06 0.0179781)
       0.0885             (-0.00319869 0.0019304 0.0175016)             (4.08993e-06 -2.92238e-06 0.0181276)
        0.089             (0.000588613 0.00170254 0.0149159)             (3.65124e-06 -3.30841e-06 0.0182163)
       0.0895             (-0.00331041 0.00284448 0.0163052)             (3.89121e-06 -4.81621e-06 0.0182475)
         0.09             (-0.00412833 0.0026993 0.0173329)             (4.00301e-06 -4.02847e-06 0.0182758)
       0.0905             (-0.00595669 0.00449314 0.0182934)             (4.71139e-06 -3.95781e-06 0.0184444)
        0.091             (-0.00578231 0.00704395 0.0184737)             (5.35191e-06 -4.76262e-06 0.0185594)
       0.0915             (-0.00249251 0.000880539 0.0172074)             (4.33918e-06 -4.25086e-06 0.0185941)
        0.092             (-0.00263678 0.00100335 0.0158705)             (4.03626e-06 -3.75132e-06 0.0186312)
       0.0925             (-0.00276612 0.00101601 0.0156435)             (4.10579e-06 -3.43348e-06 0.0188107)
        0.093             (-0.00216808 0.00233942 0.0154878)             (4.56241e-06 -2.98914e-06 0.0189634)
       0.0935             (0.00167349 0.0093389 0.0125697)             (5.32013e-06 -4.70152e-06 0.0190275)
        0.094             (-0.00391992 0.00227034 0.0156208)             (3.79226e-06 -4.40035e-06 0.0190083)
       0.0945             (-0.00402778 -0.00016031 0.0150155)             (3.64624e-06 -3.31769e-06 0.019023)
        0.095             (-0.00322599 -0.000156093 0.0147069)             (4.17431e-06 -3.91167e-06 0.0192794)
       0.0955             (0.000155194 -0.00040465 0.0128898)             (4.01058e-06 -3.40405e-06 0.0194937)
        0.096             (0.00192651 0.00420086 0.0124765)             (3.13872e-06 -3.44215e-06 0.0195398)
       0.0965             (-0.00396866 0.00221042 0.0146575)             (3.4214e-06 -4.90567e-06 0.0195201)
        0.097             (-0.00338833 0.000142333 0.0147897)             (2.65196e-06 -4.49558e-06 0.0195681)
       0.0975             (-0.00192677 -0.000143148 0.0140779)             (2.25719e-06 -3.76992e-06 0.0196949)
        0.098             (0.000419555 0.000647377 0.011807)             (3.39865e-06 -2.81217e-06 0.019855)
       0.0985             (0.00138753 0.000812523 0.0140321)             (2.03359e-06 -5.99928e-06 0.0199468)
        0.099             (-0.00148919 0.00144534 0.0125698)             (2.17304e-06 -5.26374e-06 0.0199548)
       0.0995             (-0.00215214 9.9006e-05 0.0120394)             (8.37961e-07 -4.04868e-06 0.020035)
          0.1             (-0.000549208 0.0035093 0.00998732)             (6.39754e-07 -7.89255e-06 0.020196)
