# Probe 0 (3e-05 0 0.0001)
# Probe 1 (3e-05 0 0.0529)
#       Probe             0             1
#        Time
       0.0005      0.404863             1
        0.001      0.404863             1
       0.0015      0.404863             1
        0.002      0.404863             1
       0.0025      0.404863             1
        0.003      0.404863             1
       0.0035      0.404863             1
        0.004      0.404863             1
       0.0045      0.404863             1
        0.005      0.404863             1
       0.0055      0.404863             1
        0.006      0.404863             1
       0.0065      0.404863             1
        0.007      0.404863             1
       0.0075      0.404863             1
        0.008      0.404863             1
       0.0085      0.404863             1
        0.009      0.404863             1
       0.0095      0.404863             1
         0.01      0.404863             1
       0.0105      0.404863             1
        0.011      0.404863             1
       0.0115      0.404863             1
        0.012      0.404863             1
       0.0125      0.404863             1
        0.013      0.404863             1
       0.0135      0.404863             1
        0.014      0.404863             1
       0.0145      0.404863             1
        0.015      0.404863             1
       0.0155      0.404863             1
        0.016      0.404863             1
       0.0165      0.404863             1
        0.017      0.404863             1
       0.0175      0.404863             1
        0.018      0.404863             1
       0.0185      0.404863             1
        0.019      0.404863             1
       0.0195      0.404863             1
         0.02      0.404863             1
       0.0205      0.404863             1
        0.021      0.404863             1
       0.0215      0.404863             1
        0.022      0.404863             1
       0.0225      0.404863             1
        0.023      0.404863             1
       0.0235      0.404863             1
        0.024      0.404863             1
       0.0245      0.404863             1
        0.025      0.404863             1
       0.0255      0.404863             1
        0.026      0.404863             1
       0.0265      0.404863             1
        0.027      0.404863             1
       0.0275      0.404863             1
        0.028      0.404863             1
       0.0285      0.404863             1
        0.029      0.404863             1
       0.0295      0.404863             1
         0.03      0.404863             1
       0.0305      0.404863             1
        0.031      0.404863             1
       0.0315      0.404863             1
        0.032      0.404863             1
       0.0325      0.404863             1
        0.033      0.404863             1
       0.0335      0.404863             1
        0.034      0.404863             1
       0.0345      0.404863             1
        0.035      0.404863             1
       0.0355      0.404863             1
        0.036      0.404863             1
       0.0365      0.404863             1
        0.037      0.404863             1
       0.0375      0.404863             1
        0.038      0.404863             1
       0.0385      0.404863             1
        0.039      0.404863             1
       0.0395      0.404863             1
         0.04      0.404863             1
       0.0405      0.404863             1
        0.041      0.404863             1
       0.0415      0.404863             1
        0.042      0.404863             1
       0.0425      0.404863             1
        0.043      0.404863             1
       0.0435      0.404863             1
        0.044      0.404863             1
       0.0445      0.404863             1
        0.045      0.404863             1
       0.0455      0.404863             1
        0.046      0.404863             1
       0.0465      0.404863             1
        0.047      0.404863             1
       0.0475      0.404863             1
        0.048      0.404863             1
       0.0485      0.404863             1
        0.049      0.404863             1
       0.0495      0.404863             1
         0.05      0.404863             1
       0.0505      0.404863             1
        0.051      0.404863             1
       0.0515      0.404863             1
        0.052      0.404863             1
       0.0525      0.404863             1
        0.053      0.404863             1
       0.0535      0.404863             1
        0.054      0.404863             1
       0.0545      0.404863             1
        0.055      0.404863             1
       0.0555      0.404863             1
        0.056      0.404863             1
       0.0565      0.404863             1
        0.057      0.404863             1
       0.0575      0.404863             1
        0.058      0.404863             1
       0.0585      0.404863             1
        0.059       0.41013             1
       0.0595       0.41013             1
         0.06       0.41013             1
       0.0605       0.41013             1
        0.061      0.420663             1
       0.0615      0.420663             1
        0.062      0.420663             1
       0.0625      0.420663             1
        0.063      0.420663             1
       0.0635      0.420663             1
        0.064      0.420663             1
       0.0645      0.420663             1
        0.065      0.420663             1
       0.0655      0.420663             1
        0.066      0.420663             1
       0.0665      0.420663             1
        0.067      0.420663             1
       0.0675      0.420663             1
        0.068      0.420663             1
       0.0685      0.420663             1
        0.069      0.420663             1
       0.0695      0.420663             1
         0.07      0.420663             1
       0.0705      0.420663             1
        0.071      0.420663             1
       0.0715      0.420663             1
        0.072      0.420663             1
       0.0725      0.420663             1
        0.073      0.420663             1
       0.0735      0.420663             1
        0.074      0.420663             1
       0.0745      0.420663             1
        0.075      0.420663             1
       0.0755      0.420663             1
        0.076      0.420663             1
       0.0765      0.420663             1
        0.077      0.420663             1
       0.0775      0.420663             1
        0.078      0.420663             1
       0.0785      0.420663             1
        0.079      0.431196             1
       0.0795      0.431196             1
         0.08      0.431196             1
       0.0805      0.431196             1
        0.081      0.431196             1
       0.0815      0.431196             1
        0.082      0.431196             1
       0.0825      0.431196             1
        0.083      0.431196             1
       0.0835      0.431196             1
        0.084      0.431196             1
       0.0845      0.431196             1
        0.085      0.431196             1
       0.0855      0.431196             1
        0.086      0.423296             1
       0.0865      0.423296             1
        0.087      0.423296             1
       0.0875      0.423296             1
        0.088      0.423296             1
       0.0885      0.423296             1
        0.089      0.412763             1
       0.0895      0.412763             1
         0.09      0.412763             1
       0.0905      0.412763             1
        0.091      0.412763             1
       0.0915      0.412763             1
        0.092      0.412763             1
       0.0925      0.412763             1
        0.093      0.412763             1
       0.0935      0.412763             1
        0.094      0.412763             1
       0.0945      0.412763             1
        0.095      0.412763             1
       0.0955      0.412763             1
        0.096      0.412763             1
       0.0965      0.412763             1
        0.097      0.412763             1
       0.0975      0.412763             1
        0.098      0.412763             1
       0.0985      0.412763             1
        0.099      0.412763             1
       0.0995      0.412763             1
          0.1      0.412763             1
