# Region type : patch wall
# Faces  :   768
# Area   :   4.787251e-03
# Time       	sum(phi)
0.0005       	3.392977e-23
0.001        	-4.596417e-24
0.0015       	1.609948e-22
0.002        	-7.760063e-24
0.0025       	4.051869e-23
0.003        	-5.755559e-23
0.0035       	-3.815479e-23
0.004        	5.704252e-23
0.0045       	-2.845483e-23
0.005        	-1.076625e-23
0.0055       	3.827653e-23
0.006        	-1.188450e-22
0.0065       	-4.309965e-23
0.007        	3.272162e-24
0.0075       	4.488839e-23
0.008        	2.271408e-23
0.0085       	-2.767531e-23
0.009        	9.083508e-23
0.0095       	3.875221e-24
0.01         	-5.665781e-23
0.0105       	6.733541e-23
0.011        	8.381715e-24
0.0115       	-1.034182e-24
0.012        	-4.321743e-24
0.0125       	3.239071e-23
0.013        	3.786329e-23
0.0135       	4.492332e-23
0.014        	-3.381960e-24
0.0145       	-1.473772e-23
0.015        	-7.204111e-23
0.0155       	-5.213563e-23
0.016        	2.852699e-23
0.0165       	-6.038246e-23
0.017        	-6.482607e-24
0.0175       	-5.457381e-25
0.018        	-8.287583e-24
0.0185       	-3.457566e-23
0.019        	-3.706082e-24
0.0195       	-4.584054e-23
0.02         	1.344840e-24
0.0205       	-3.128357e-23
0.021        	1.815963e-23
0.0215       	5.210927e-24
0.022        	-2.802522e-23
0.0225       	-1.249581e-23
0.023        	-1.366659e-23
0.0235       	1.025602e-23
0.024        	-3.242175e-23
0.0245       	8.244413e-26
0.025        	4.347630e-24
0.0255       	4.993933e-24
0.026        	-3.835983e-24
0.0265       	-1.046512e-23
0.027        	-1.489786e-23
0.0275       	1.137230e-23
0.028        	-4.912746e-24
0.0285       	1.345422e-23
0.029        	9.454748e-24
0.0295       	-8.129333e-24
0.03         	-5.852698e-24
0.0305       	1.157102e-23
0.031        	-2.246200e-23
0.0315       	-1.523314e-23
0.032        	1.159989e-23
0.0325       	-3.278688e-24
0.033        	1.663977e-23
0.0335       	1.248850e-23
0.034        	3.581845e-24
0.0345       	1.397192e-23
0.035        	5.263560e-24
0.0355       	7.971827e-24
0.036        	-1.546811e-24
0.0365       	-9.021297e-24
0.037        	-2.046465e-23
0.0375       	-1.664342e-23
0.038        	-3.251942e-24
0.0385       	2.400264e-24
0.039        	-1.130509e-23
0.0395       	2.340790e-23
0.04         	5.588208e-24
0.0405       	1.526372e-23
0.041        	-2.170762e-24
0.0415       	-3.690678e-24
0.042        	1.006266e-23
0.0425       	2.700685e-23
0.043        	-1.144121e-23
0.0435       	-2.222587e-23
0.044        	-2.328128e-23
0.0445       	2.506607e-23
0.045        	-6.654028e-24
0.0455       	6.013542e-25
0.046        	3.184552e-24
0.0465       	6.567687e-24
0.047        	-1.409534e-23
0.0475       	1.145692e-23
0.048        	5.307089e-24
0.0485       	1.697238e-24
0.049        	1.709396e-23
0.0495       	6.726736e-25
0.05         	3.475467e-24
0.0505       	-4.664762e-24
0.051        	3.225902e-24
0.0515       	-1.864015e-23
0.052        	-1.572926e-23
0.0525       	8.150473e-24
0.053        	3.699648e-24
0.0535       	-5.069267e-24
0.054        	6.668727e-23
0.0545       	-2.136502e-23
0.055        	-1.108034e-23
0.0555       	-3.279296e-23
0.056        	-1.389778e-23
0.0565       	2.922342e-23
0.057        	-1.577763e-23
0.0575       	2.438074e-23
0.058        	4.252880e-23
0.0585       	2.721065e-23
0.059        	-1.355445e-23
0.0595       	9.719840e-24
0.06         	-2.919688e-23
0.0605       	-2.449847e-23
0.061        	6.356072e-24
0.0615       	2.340624e-23
0.062        	-2.866533e-23
0.0625       	2.178847e-23
0.063        	4.098484e-24
0.0635       	8.620239e-24
0.064        	-2.398852e-23
0.0645       	-3.196913e-23
0.065        	-1.317502e-23
0.0655       	3.799018e-23
0.066        	-2.143714e-23
0.0665       	1.230876e-23
0.067        	-2.884833e-23
0.0675       	1.952239e-23
0.068        	-3.852619e-23
0.0685       	2.044778e-23
0.069        	1.591680e-23
0.0695       	1.586882e-23
0.07         	3.636972e-24
0.0705       	3.383872e-24
0.071        	-9.083220e-24
0.0715       	1.222139e-23
0.072        	7.409990e-24
0.0725       	2.235240e-23
0.073        	9.782691e-24
0.0735       	-9.222257e-24
0.074        	1.661923e-23
0.0745       	-3.878103e-23
0.075        	-1.687816e-23
0.0755       	6.839781e-24
0.076        	2.530641e-23
0.0765       	3.730095e-24
0.077        	1.155803e-23
0.0775       	-1.928201e-23
0.078        	-3.186974e-23
0.0785       	1.297673e-23
0.079        	-7.228703e-24
0.0795       	1.893678e-23
0.08         	1.983275e-23
0.0805       	-1.272808e-23
0.081        	-5.227472e-23
0.0815       	5.849220e-24
0.082        	-4.404208e-24
0.0825       	-2.233995e-23
0.083        	1.840164e-23
0.0835       	-2.343141e-23
0.084        	4.162118e-23
0.0845       	3.410818e-24
0.085        	5.146493e-23
0.0855       	-1.200055e-23
0.086        	-3.261966e-23
0.0865       	-1.247627e-23
0.087        	4.973524e-24
0.0875       	1.562022e-23
0.088        	-1.736241e-23
0.0885       	-5.821190e-23
0.089        	1.001019e-23
0.0895       	-1.656580e-23
0.09         	1.446590e-23
0.0905       	-7.222528e-23
0.091        	-2.665164e-23
0.0915       	2.097458e-23
0.092        	-5.595700e-24
0.0925       	-2.852400e-23
0.093        	4.531165e-24
0.0935       	-4.845435e-23
0.094        	-1.864021e-23
0.0945       	3.308659e-23
0.095        	-1.177033e-23
0.0955       	1.794294e-23
0.096        	3.290887e-23
0.0965       	-3.078917e-23
0.097        	-4.764554e-23
0.0975       	-1.646487e-23
0.098        	2.298514e-23
0.0985       	7.446172e-24
0.099        	6.271340e-23
0.0995       	-4.330281e-23
0.1          	-4.713003e-24
