LIGGGHTS (Version LIGGGHTS-PUBLIC 3.8.0, compiled 2018-05-12-08:38:37 by eadaymo, git commit unknown)
echo            both
log             ../DEM/log.liggghts
