ITEM: TIMESTEP
15000
ITEM: NUMBER OF ATOMS
10000
ITEM: BOX BOUNDS mm mm mm
-0.015 0.015
-0.015 0.015
-0.001 0.0554
ITEM: ATOMS id type x y z vx vy vz fx fy fz f_dragforce[1] f_dragforce[2] f_dragforce[3] radius 
1359 1 -0.00149145 -0.0132654 0.000499704 -0.000782545 -0.000248195 -2.46368e-05 -3.00848e-07 6.07977e-08 8.81937e-08 8.45428e-08 1.23886e-07 1.81517e-06 0.0005 
2191 1 -4.99211e-05 -0.013347 0.000499809 0.00136813 -0.000533289 -1.73298e-07 3.94758e-08 -1.0974e-08 -4.14807e-09 1.03615e-07 -1.7176e-08 1.28779e-06 0.0005 
637 1 -0.00304788 -0.0122404 0.000498748 -4.71162e-05 0.000235542 2.25314e-05 -9.24155e-08 5.70374e-09 4.19551e-09 -2.80717e-08 1.43659e-07 1.12089e-06 0.0005 
1496 1 -0.0020714 -0.0124508 0.000498792 2.30632e-08 0.000282423 9.35846e-05 -8.59455e-08 1.5043e-07 2.10117e-07 5.15952e-08 1.68136e-07 1.30589e-06 0.0005 
502 1 -0.000771601 -0.0125185 0.000499036 4.47209e-05 0.00022724 2.42177e-05 -5.6459e-08 -2.61518e-07 2.64956e-08 9.92569e-08 1.39053e-07 1.20121e-06 0.0005 
1195 1 -0.00706067 -0.0111023 0.000499521 -0.00054274 -0.000429139 -0.000163787 -2.62001e-07 -8.84021e-07 -8.65386e-07 -1.89703e-07 4.92193e-08 1.38529e-06 0.0005 
1356 1 -0.00631151 -0.011764 0.00049954 -0.000219389 5.23901e-05 7.97418e-05 2.34233e-07 -9.73669e-08 -5.79476e-07 -1.65914e-07 1.31545e-07 1.56548e-06 0.0005 
939 1 -0.0051493 -0.011661 0.00049967 5.21299e-06 4.88199e-05 2.17747e-05 2.91573e-07 3.1644e-07 1.09648e-09 -1.05116e-07 1.33244e-07 1.16945e-06 0.0005 
1758 1 -0.00414873 -0.0116619 0.000499795 -8.50374e-05 -0.000154087 -8.54801e-07 -4.35388e-08 1.09083e-07 7.30729e-09 -5.78136e-08 1.2765e-07 1.02063e-06 0.0005 
656 1 -0.00321912 -0.0112571 0.000499188 -9.70087e-05 0.000373144 0.000112775 -2.4941e-07 -5.12456e-08 -9.01842e-08 -3.06522e-09 1.54851e-07 1.04329e-06 0.0005 
758 1 -0.00220801 -0.0114597 0.000499795 -0.000254891 0.000488663 -3.01582e-07 7.20783e-09 1.22007e-07 -3.86253e-09 8.70437e-10 1.71187e-07 1.04999e-06 0.0005 
319 1 -0.00111861 -0.0115642 0.000499774 0.000178237 0.000128185 -3.3902e-05 1.2438e-07 1.62464e-08 -6.49929e-08 1.32341e-08 1.58279e-07 1.05253e-06 0.0005 
511 1 -1.4328e-05 -0.0111168 0.000497862 0.000103808 9.52056e-05 0.000183229 6.7923e-08 2.39543e-07 -1.50572e-07 1.39602e-08 -2.43711e-09 8.93114e-07 0.0005 
1144 1 -0.00802028 -0.0106632 0.000499762 -0.00119992 -0.000272919 2.72071e-05 -3.86677e-07 1.80189e-08 9.55222e-08 -2.48911e-07 -5.53996e-08 1.30364e-06 0.0005 
353 1 -0.00578175 -0.0108869 0.000499552 0.00011218 0.000219615 -5.23473e-06 2.98717e-07 3.6761e-07 2.33719e-08 -1.04003e-07 6.75507e-08 1.08693e-06 0.0005 
1818 1 -0.00393753 -0.0105639 0.000498449 -0.000275204 0.000388974 0.000117777 -2.83278e-07 -4.09298e-08 -1.00365e-09 -8.60483e-09 7.94647e-08 1.03981e-06 0.0005 
1873 1 -0.00258389 -0.0104863 0.0004997 5.34727e-05 0.000348894 -0.000113662 -1.51475e-07 -3.58605e-07 2.79208e-07 -4.7296e-09 7.42806e-08 1.03143e-06 0.0005 
2211 1 -0.000754722 -0.0104456 0.000498772 -5.70874e-05 5.41812e-05 8.32336e-05 8.53712e-08 -2.3057e-07 -2.54723e-08 -2.56309e-08 4.37412e-08 1.00126e-06 0.0005 
647 1 -0.00885273 -0.00999332 0.000499642 -0.000528899 0.000547728 2.37291e-05 -2.02526e-07 -9.81443e-08 1.56719e-07 -1.97187e-07 -1.48611e-07 1.2724e-06 0.0005 
542 1 -0.00733606 -0.00993402 0.0004992 -0.00049061 -0.000814705 -1.94235e-05 -2.08489e-07 -5.438e-07 6.68736e-08 -2.06256e-07 -1.62491e-07 9.7494e-07 0.0005 
1585 1 -0.00535476 -0.00994644 0.000499115 -0.000296531 0.000575616 -3.96645e-07 -2.09272e-07 1.35318e-07 4.9085e-08 -2.30462e-08 -2.6157e-08 1.09154e-06 0.0005 
2142 1 -0.00325951 -0.00974999 0.000499326 -8.96964e-06 0.000359714 8.56135e-06 -9.18013e-08 -2.66834e-07 -1.93424e-07 6.23186e-09 -5.53459e-08 1.01101e-06 0.0005 
2330 1 -0.00886429 -0.0089877 0.00049887 0.000106821 0.000448116 0.000102437 -9.78701e-08 -1.49473e-07 4.54489e-08 -1.95304e-07 -2.43062e-07 9.40076e-07 0.0005 
733 1 -0.00681109 -0.00906783 0.000499162 0.000401667 0.000104616 -5.36766e-06 6.16316e-07 -2.74837e-07 -1.15623e-07 -1.14748e-07 -1.83951e-07 1.04513e-06 0.0005 
1443 1 -0.00575572 -0.00889305 0.000499491 0.000296237 0.000134764 -1.22454e-05 3.31331e-07 -3.16787e-07 3.10526e-08 -4.11701e-08 -2.01909e-07 1.06587e-06 0.0005 
1221 1 -0.00475623 -0.00887366 0.000499337 0.000457539 0.000250677 8.07544e-05 4.7703e-08 -2.02764e-07 -2.33046e-08 -3.21417e-09 -2.06921e-07 1.06701e-06 0.0005 
388 1 -0.00321036 -0.0087513 0.000499772 0.000334595 0.000343772 -3.30466e-05 2.42056e-07 -1.42627e-07 -1.57325e-08 -1.29609e-09 -1.4198e-07 1.01199e-06 0.0005 
823 1 -0.00235968 -0.00927788 0.000499769 0.000108676 0.000399219 -1.74331e-06 -2.66545e-07 -3.81813e-07 1.0112e-07 8.33753e-09 -1.215e-07 9.91258e-07 0.0005 
714 1 -0.00108396 -0.00881155 0.000499287 0.000144466 8.77638e-05 7.04125e-05 1.35518e-07 2.82188e-08 -7.38019e-08 3.88471e-10 -2.05842e-07 9.51643e-07 0.0005 
462 1 -8.59282e-05 -0.00886585 0.000499069 0.000265706 -6.30931e-06 0.000131015 5.37226e-08 -4.33951e-08 -1.34386e-08 -5.93916e-08 -1.27977e-07 8.78773e-07 0.0005 
529 1 -0.0102095 -0.00860235 0.000499594 -0.000205824 0.000246751 1.05834e-06 -8.70645e-08 -1.73255e-07 2.37025e-07 5.7992e-08 -3.37047e-07 1.37526e-06 0.0005 
359 1 -0.00934027 -0.00810919 0.000498942 -0.00024478 0.000290397 0.00014142 -2.74403e-07 -2.51252e-08 5.23567e-07 -1.64421e-07 -2.06465e-07 1.00218e-06 0.0005 
1505 1 -0.00808033 -0.0083673 0.000499681 6.3235e-05 0.000647536 -2.48159e-05 -5.86371e-07 -2.07653e-07 -3.07035e-07 -1.85472e-07 -1.65642e-07 1.00288e-06 0.0005 
2252 1 -0.00613442 -0.00796785 0.000499685 -0.000175448 2.6007e-06 -5.62371e-05 5.32894e-08 -3.75111e-07 -5.91165e-08 -6.0682e-08 -1.56309e-07 1.0853e-06 0.0005 
2042 1 -0.00233171 -0.00827401 0.000499783 0.000541147 0.000137002 2.27719e-05 2.20319e-07 6.21316e-08 -2.69499e-08 -2.14851e-09 -1.64875e-07 1.03521e-06 0.0005 
1539 1 -0.010837 -0.00779733 0.000498859 -0.000167903 0.000248629 2.10102e-05 -3.72867e-07 1.01461e-06 -1.90536e-08 1.5712e-07 -2.87393e-07 1.59159e-06 0.0005 
986 1 -0.00812226 -0.00736822 0.000499794 0.000150606 0.000709201 8.42961e-06 -2.48296e-07 -3.23269e-08 3.2378e-08 -2.84737e-07 -1.22021e-07 9.53357e-07 0.0005 
1847 1 -0.00709592 -0.00769352 0.000499099 -0.000254741 -1.80752e-05 0.000155118 -5.32517e-08 -3.84992e-07 -1.16721e-07 -1.42332e-07 -1.28943e-07 1.1041e-06 0.0005 
1447 1 -0.00561013 -0.00711651 0.000499744 -4.55041e-05 2.53079e-05 -2.61902e-05 -5.71593e-08 -2.2267e-07 -1.26342e-07 -3.6475e-08 -1.17124e-07 1.05935e-06 0.0005 
1848 1 -0.00461788 -0.00724013 0.000499139 -9.46889e-05 -0.000213286 5.27302e-05 -4.80097e-08 -8.94532e-08 -1.73703e-07 -6.02475e-08 -6.40622e-08 1.10133e-06 0.0005 
2417 1 -0.00359405 -0.00736071 0.000499705 0.000128008 0.000600481 -1.85437e-05 3.54302e-07 -5.92028e-07 -1.65944e-08 -6.73148e-08 -7.80202e-08 1.0703e-06 0.0005 
1462 1 -0.00259545 -0.00730913 0.000498719 0.000179571 5.38094e-05 0.000108247 2.39806e-07 5.42541e-08 -5.49092e-08 -5.31338e-08 -1.43364e-07 1.03729e-06 0.0005 
46 1 -0.00131557 -0.00783902 0.000499733 0.000365697 0.000157218 4.36475e-07 2.17725e-09 3.65368e-08 -1.47871e-08 4.944e-08 -3.7499e-07 1.14295e-06 0.0005 
1432 1 -0.000185443 -0.00787143 0.000499384 0.000206496 0.000100994 2.1153e-05 1.81196e-07 -1.0746e-07 1.63588e-07 3.55047e-08 -2.2693e-07 9.88292e-07 0.0005 
2195 1 -0.0115995 -0.00660352 0.000498799 -0.000409587 0.000576052 -6.69492e-06 -9.4018e-08 1.36462e-07 6.36242e-08 3.42991e-07 -1.22473e-07 1.81886e-06 0.0005 
1429 1 -0.0105924 -0.00682662 0.000499796 0.000411451 0.000173668 -2.34904e-07 1.28243e-07 -1.11573e-07 -2.99273e-09 1.81204e-07 -1.40134e-07 1.10326e-06 0.0005 
551 1 -0.00959733 -0.00693299 0.000499171 -0.000591179 -0.000951388 0.000132439 -6.747e-07 -5.20095e-07 9.69778e-08 -4.29538e-08 -1.37703e-07 1.01197e-06 0.0005 
1263 1 -0.00879985 -0.00632755 0.000499795 -6.5407e-05 0.000299656 -2.30297e-07 -1.32342e-07 -1.10122e-07 -3.0111e-09 -1.52386e-07 -1.21202e-07 9.63062e-07 0.0005 
490 1 -0.00778436 -0.00634835 0.000499307 0.000131059 7.54196e-06 1.50914e-05 2.37954e-07 3.25694e-07 1.156e-07 -2.86304e-07 -7.63949e-08 1.00637e-06 0.0005 
1485 1 -0.00646888 -0.00656932 0.000499741 -0.000183728 -0.000512359 2.11084e-05 2.01985e-07 1.97015e-08 7.1796e-08 -1.08167e-07 -1.28182e-07 1.06753e-06 0.0005 
74 1 -0.00405061 -0.00639618 0.000499498 3.10628e-06 -7.32021e-05 2.17426e-05 2.42478e-07 2.48472e-07 1.23722e-07 6.40264e-08 2.1588e-08 9.53999e-07 0.0005 
606 1 -0.0109791 -0.00581925 0.000499796 0.000254122 0.000138396 2.33987e-06 1.68103e-07 -1.38275e-08 7.59319e-09 2.9387e-07 -7.08463e-08 1.21086e-06 0.0005 
1293 1 -0.00999676 -0.006006 0.000499793 0.00025584 -0.000214109 2.59661e-05 1.38725e-07 3.40788e-08 -1.89032e-08 2.39239e-07 -4.63158e-08 1.0522e-06 0.0005 
1248 1 -0.00702019 -0.00570323 0.000499793 0.000282283 0.000125757 -1.28952e-05 1.1554e-06 -6.14576e-08 6.58244e-08 -2.19524e-07 -5.60974e-08 1.03127e-06 0.0005 
1101 1 -0.00560545 -0.00601251 0.000498756 -0.000136312 5.73059e-06 8.70767e-05 6.94404e-08 6.42572e-08 8.27752e-08 -1.95451e-08 -8.85464e-08 1.06722e-06 0.0005 
817 1 -0.00467878 -0.0056131 0.000499496 -2.21686e-05 0.000121026 2.09269e-05 -6.71513e-08 -5.03766e-08 -4.19463e-08 6.93453e-08 4.54234e-08 9.55917e-07 0.0005 
1969 1 -0.00335337 -0.00559045 0.000499402 2.25684e-05 5.20024e-05 5.90689e-05 -1.11595e-07 -1.56782e-07 6.6947e-09 -1.86185e-07 -4.55608e-08 9.36355e-07 0.0005 
266 1 -0.00225322 -0.00609063 0.000499 0.000109622 5.76253e-05 5.60081e-05 1.31789e-07 1.49258e-08 4.94682e-09 -2.7923e-07 -1.85464e-07 9.28331e-07 0.0005 
1477 1 -0.000920086 -0.00626349 0.000499333 6.00766e-05 0.000447391 5.45527e-05 1.52444e-07 2.26939e-07 9.64514e-09 8.20812e-09 -2.93668e-07 1.09267e-06 0.0005 
740 1 -8.8245e-05 -0.00558978 0.00049947 -2.18924e-05 -8.48286e-05 9.81354e-06 -6.63618e-08 -2.23863e-07 -6.89943e-08 1.90607e-07 -1.54591e-07 8.9417e-07 0.0005 
1091 1 -0.0121734 -0.00548233 0.000498601 -0.000362735 0.00064048 5.86205e-05 -1.10155e-08 1.79707e-07 -1.15235e-08 2.65141e-07 -7.08108e-08 1.88866e-06 0.0005 
900 1 -0.0113637 -0.00489599 0.000499651 -9.48362e-05 0.000164629 1.09351e-05 -3.53634e-09 1.91928e-07 -8.02712e-09 1.96348e-07 -7.8705e-08 1.01244e-06 0.0005 
1315 1 -0.0103202 -0.00483709 0.000499143 0.00020272 -0.00017596 4.76384e-05 -6.7867e-08 3.4739e-07 -6.40586e-08 2.00325e-07 -5.55653e-08 1.03187e-06 0.0005 
53 1 -0.00867663 -0.00528146 0.000498463 0.000180011 -0.00011177 2.54858e-05 1.5585e-07 2.87565e-07 -9.52071e-08 -6.22061e-08 -1.52024e-07 9.79686e-07 0.0005 
1403 1 -0.00564799 -0.00495214 0.000499717 -0.00012941 -3.62392e-05 2.0953e-05 -1.78313e-07 -2.75319e-08 -1.31993e-07 -2.74511e-08 6.77546e-09 9.92277e-07 0.0005 
2181 1 -0.00395207 -0.00479053 0.000498993 3.35875e-07 7.13198e-05 6.4455e-05 -1.94661e-08 3.87134e-08 2.61241e-08 -1.66699e-07 6.62628e-09 8.98091e-07 0.0005 
152 1 -0.00257289 -0.00496646 0.00049988 4.76571e-05 5.43862e-05 2.75913e-05 -1.98029e-07 -1.2501e-07 1.00747e-08 -2.70162e-07 -3.70449e-08 1.087e-06 0.0005 
262 1 -0.000966323 -0.00511173 0.000499476 0.000141365 0.000246233 4.80389e-06 7.24397e-08 1.05897e-07 -8.74838e-08 1.25894e-08 -5.75011e-08 1.11238e-06 0.0005 
890 1 -0.012549 -0.00455623 0.000500076 -0.000225918 0.000770663 8.78334e-05 -1.18825e-07 -1.19075e-09 -4.05467e-07 1.14665e-07 -5.97287e-08 1.73095e-06 0.0005 
2 1 -0.0108902 -0.00401541 0.000499803 0.000264309 -1.73284e-06 -6.33733e-05 4.32258e-08 5.2907e-08 -3.91882e-09 1.00233e-07 -1.07075e-07 9.49394e-07 0.0005 
12 1 -0.0093866 -0.00445615 0.000499343 6.70582e-05 -0.000164426 4.53812e-05 4.94451e-10 4.61581e-07 -9.45284e-08 1.73141e-08 -1.13187e-07 9.92815e-07 0.0005 
1415 1 -0.00839576 -0.00432222 0.000499143 8.01872e-05 3.25477e-06 1.48269e-05 3.24539e-07 1.13594e-07 -1.55903e-07 -5.51124e-08 -1.10115e-07 9.81412e-07 0.0005 
93 1 -0.00728862 -0.00463705 0.000499458 6.96679e-06 -0.000436761 2.10345e-05 3.31221e-07 -2.87913e-08 2.06502e-07 -1.05209e-07 -8.01238e-08 1.00485e-06 0.0005 
2064 1 -0.00595399 -0.00400035 0.000498471 6.6665e-05 5.04746e-05 0.000103055 9.95388e-09 -1.04929e-07 7.25389e-08 -1.50191e-08 5.12955e-08 9.70974e-07 0.0005 
1452 1 -0.00495407 -0.00400502 0.000499774 4.83997e-05 -0.000275625 -1.60603e-06 -4.13916e-08 -3.71739e-07 7.73099e-08 -5.10288e-08 4.30736e-08 9.16826e-07 0.0005 
1459 1 -0.00317111 -0.00416565 0.0004991 -6.46379e-05 3.06847e-05 6.5871e-05 9.19508e-09 1.12883e-07 -1.27453e-08 -2.5688e-07 3.79894e-08 1.10068e-06 0.0005 
1507 1 -0.00173784 -0.0044175 0.00049978 -0.000217737 0.000444064 -1.98015e-05 -1.00578e-07 -1.29296e-07 -6.78942e-09 -1.55926e-07 4.95779e-08 1.13154e-06 0.0005 
2217 1 -0.000782323 -0.00412465 0.000499284 -0.000193695 0.000344786 0.000100989 6.44422e-08 5.3321e-08 1.67281e-07 9.36906e-08 1.60612e-07 1.12917e-06 0.0005 
982 1 -0.0128881 -0.0034821 0.000499192 -0.000115633 0.000358591 5.9426e-05 -2.26968e-07 1.96588e-07 -6.1121e-08 7.09439e-08 -8.51645e-09 1.71013e-06 0.0005 
1544 1 -0.0100002 -0.0035596 0.000499785 0.000359068 -4.662e-05 2.04408e-05 7.45748e-08 1.92066e-07 -5.93865e-08 2.37638e-08 -8.1551e-08 9.87854e-07 0.0005 
2007 1 -0.00900089 -0.00352332 0.000499796 0.000384525 -0.000620405 -1.44342e-07 4.31805e-08 -2.30239e-08 -5.65683e-08 -7.34467e-08 -6.61855e-08 1.03097e-06 0.0005 
1617 1 -0.00781587 -0.00350718 0.000499318 8.53643e-05 0.000120896 3.22691e-05 -8.44174e-09 -7.22425e-08 9.13082e-08 -3.83795e-08 -3.99865e-08 9.80455e-07 0.0005 
230 1 -0.00404126 -0.00359681 0.000499241 -5.26797e-05 -6.2744e-05 -1.0025e-06 -1.7019e-07 6.10078e-08 -2.05845e-08 -1.0357e-07 6.61486e-08 9.08415e-07 0.0005 
1067 1 -0.00238853 -0.00354375 0.000499107 -0.000208515 0.000263488 3.15543e-05 4.35585e-08 1.0595e-07 -2.82192e-08 -2.35055e-07 1.16316e-07 1.03624e-06 0.0005 
9 1 -0.0130654 -0.0024745 0.000499638 -5.87354e-05 0.000120781 1.84911e-05 -1.48926e-07 3.27698e-07 4.25825e-08 9.74954e-08 4.58849e-08 1.73019e-06 0.0005 
2406 1 -0.0116638 -0.003063 0.000498919 -0.000229511 0.000112376 5.95316e-05 -2.98706e-08 1.73356e-08 3.66031e-08 9.88577e-08 -2.80722e-08 1.00691e-06 0.0005 
178 1 -0.00953202 -0.00267488 0.000499798 -2.27255e-05 -0.000496516 -2.65745e-07 -3.14766e-08 -1.08343e-08 -3.24587e-09 -3.06636e-08 -2.9365e-08 1.03207e-06 0.0005 
1238 1 -0.00853106 -0.00262906 0.000499346 -0.000102941 8.81458e-05 3.66592e-05 6.66463e-08 1.78429e-08 2.63153e-08 -3.48155e-08 -1.7728e-08 1.00511e-06 0.0005 
1610 1 -0.00704796 -0.00272587 0.000499794 0.00055429 0.000145762 -1.33846e-07 5.95061e-09 1.71672e-08 -1.65854e-09 2.46132e-08 2.60356e-08 9.71167e-07 0.0005 
391 1 -0.00605695 -0.00288419 0.000499796 0.000469099 -0.000122352 -8.69267e-08 7.35025e-08 5.41414e-08 -1.12995e-09 9.6658e-08 5.69291e-08 9.58294e-07 0.0005 
1178 1 -0.00506416 -0.00300517 0.000499792 0.000532437 0.000270404 -4.30413e-09 4.90676e-08 4.91691e-08 2.79853e-10 6.88298e-08 6.4828e-08 9.37933e-07 0.0005 
1798 1 -0.00415018 -0.00258724 0.000499752 -0.000250941 0.000156528 -9.25337e-06 -1.5571e-07 -3.01971e-08 -5.44427e-09 7.28152e-08 7.2903e-08 9.29408e-07 0.0005 
619 1 -0.00323292 -0.00300829 0.000499738 -0.000331205 0.000140232 3.89364e-05 -2.49437e-08 2.03844e-07 2.71146e-08 -1.61446e-07 1.3207e-07 8.91336e-07 0.0005 
38 1 -0.00211933 -0.00249396 0.000499795 -0.000883571 0.000641267 3.26238e-07 -1.41286e-07 1.36219e-07 5.24592e-09 -2.01739e-07 1.6999e-07 8.80375e-07 0.0005 
736 1 -0.000793101 -0.002954 0.000499734 -0.00018225 0.000467673 -6.39899e-05 1.57971e-07 9.78967e-08 -1.78782e-07 -6.31879e-08 1.42849e-07 1.04688e-06 0.0005 
186 1 -0.0124288 -0.00170367 0.000499105 4.62381e-05 -3.81593e-05 1.70687e-05 1.15563e-07 1.46657e-07 -9.15177e-08 1.57382e-07 8.53018e-08 1.15226e-06 0.0005 
459 1 -0.0114497 -0.00208734 0.000499847 9.57266e-05 5.36084e-05 -1.67099e-05 -4.81558e-09 4.62128e-08 -3.01876e-08 1.75733e-07 6.68887e-08 1.02648e-06 0.0005 
866 1 -0.0104732 -0.00233404 0.000499586 -0.00021154 -0.000153813 -1.15591e-05 1.41793e-07 -1.54578e-07 1.18211e-07 8.84396e-08 -8.72183e-09 9.61476e-07 0.0005 
1411 1 -0.00937981 -0.00168376 0.000499689 2.98238e-05 0.000148582 1.36338e-05 -6.56321e-08 7.28237e-08 -9.61577e-08 7.4855e-08 -7.60952e-09 8.91129e-07 0.0005 
1278 1 -0.00775166 -0.00200331 0.000499668 3.31685e-05 -4.74199e-05 -2.47992e-05 5.27093e-08 3.8892e-08 -2.54677e-07 6.43484e-09 3.07185e-08 9.67348e-07 0.0005 
62 1 -0.00601636 -0.00187753 0.000499753 0.00106304 4.30003e-05 -3.36715e-06 1.32845e-07 -2.48322e-08 3.21625e-09 8.89081e-08 4.56409e-08 9.56238e-07 0.0005 
1669 1 -0.0049636 -0.00200478 0.000499793 0.000833817 0.000228309 2.18071e-08 4.88685e-08 2.19137e-08 4.19089e-10 8.8786e-08 2.69478e-08 9.01429e-07 0.0005 
695 1 -0.00125476 -0.00197661 0.000499302 0.000230551 5.9568e-05 0.000100064 -6.02771e-07 -1.31326e-08 -7.44152e-08 -1.37595e-07 1.34682e-07 1.02054e-06 0.0005 
1530 1 -0.0132945 -0.00120398 0.000499658 -1.37256e-05 -7.80698e-06 6.28959e-06 -1.97452e-07 -3.40683e-07 -6.35072e-08 1.21528e-07 1.30275e-07 1.81744e-06 0.0005 
1654 1 -0.0107151 -0.00136415 0.000499386 -5.23521e-05 -6.18878e-05 -6.43248e-06 1.63684e-07 4.22348e-08 -6.98885e-08 1.7888e-07 1.12781e-07 1.04467e-06 0.0005 
299 1 -0.00770144 -0.000981322 0.000499797 0.000308068 1.21541e-05 -3.21703e-06 -2.52883e-08 6.95533e-08 9.44822e-10 -1.92877e-08 8.40057e-08 9.44492e-07 0.0005 
98 1 -0.00667874 -0.00106355 0.000499158 5.83239e-05 -5.09109e-06 4.16638e-05 9.50689e-08 4.73051e-08 -1.24542e-07 3.72823e-08 6.95251e-08 9.50592e-07 0.0005 
1060 1 -0.00391439 -0.00157414 0.000499402 -5.24701e-05 -1.36015e-05 6.2963e-05 1.64041e-08 1.83409e-07 1.27699e-07 -3.34666e-08 -7.02226e-08 8.54517e-07 0.0005 
781 1 -0.0021142 -0.00129129 0.000499745 0.00500448 0.00271257 1.19586e-05 6.1308e-07 2.9955e-07 -5.95352e-08 -2.32269e-07 -2.08924e-08 8.34755e-07 0.0005 
1955 1 -0.000341229 -0.00148356 0.00049942 0.00019119 0.000248931 -6.33987e-06 -9.54258e-08 -1.00835e-07 7.1074e-09 3.59818e-09 1.58844e-07 9.09315e-07 0.0005 
1675 1 -0.0124417 -0.000621181 0.000499205 -4.69091e-05 -9.65296e-06 6.49846e-06 2.16409e-07 1.12971e-07 3.72116e-08 1.42686e-07 1.72222e-07 1.1509e-06 0.0005 
2125 1 -0.0115149 -0.000114361 0.000499367 0.000257266 0.000153913 4.70746e-05 1.54828e-07 -1.33626e-07 -1.00419e-08 2.50845e-08 2.2663e-07 1.09608e-06 0.0005 
2169 1 -0.00953399 -0.000695643 0.000499812 4.27305e-05 -3.30047e-06 -3.23534e-05 -2.09938e-07 3.46671e-07 -1.73483e-07 9.24906e-08 2.42177e-08 8.80475e-07 0.0005 
6577 1 -0.00859089 -0.000365193 0.000498859 0.000104583 -6.55406e-05 8.0909e-05 -2.49894e-07 7.17753e-08 -1.14266e-07 1.20281e-08 5.59259e-08 9.09245e-07 0.0005 
6638 1 -0.00683889 -7.74936e-05 0.000499265 0.000248876 7.94726e-05 2.3541e-05 2.42811e-07 1.70137e-07 -1.74981e-07 -1.50899e-08 8.74372e-08 8.82613e-07 0.0005 
1600 1 -0.00577052 -0.000645502 0.0004992 -8.3397e-05 0.000397039 4.95919e-05 4.07298e-07 -5.34439e-07 -2.1675e-07 3.33176e-08 3.50193e-08 9.53054e-07 0.0005 
108 1 -0.00326118 -0.000748633 0.000499211 0.000224397 0.000139957 -5.74997e-06 -2.60109e-07 2.06437e-07 6.12561e-08 -1.42265e-07 -1.38218e-07 8.31026e-07 0.0005 
288 1 -0.0017816 -0.000341918 0.000499438 9.77503e-05 0.000146194 -1.06302e-05 1.34277e-07 6.8304e-08 -6.74524e-08 -7.17768e-08 -1.88845e-08 8.58603e-07 0.0005 
1934 1 -0.000387159 -0.000484824 0.000499437 0.000122943 0.000282811 -2.42389e-05 -3.43093e-07 4.2044e-08 -1.62992e-08 2.88739e-08 1.59105e-07 8.88978e-07 0.0005 
1180 1 -0.00374271 -0.0128156 0.000927612 -1.67718e-05 0.000135092 0.00014497 -1.09003e-07 6.92411e-08 -9.25848e-08 -7.49807e-08 9.01937e-08 2.11697e-06 0.0005 
1047 1 -0.00271685 -0.0130726 0.000939395 1.15038e-05 0.000201298 0.000211118 -1.27702e-07 1.35951e-08 1.33226e-07 -3.34837e-09 1.18412e-07 2.3439e-06 0.0005 
2053 1 -0.00467599 -0.0125047 0.000750855 -6.03556e-05 3.14494e-05 8.91262e-05 -6.24035e-08 2.6057e-08 -1.71092e-07 -1.07126e-07 1.18239e-07 1.96298e-06 0.0005 
427 1 -0.00477435 -0.0110268 0.00117552 -6.454e-05 0.000679284 -0.000563064 2.14061e-07 3.54204e-07 -2.32241e-07 -2.90212e-08 1.05639e-07 2.24035e-06 0.0005 
2081 1 -0.00166406 -0.0106893 0.000832796 -0.000102378 0.000155126 0.0002709 4.85111e-08 2.15351e-07 -1.70668e-07 -2.39554e-08 1.07033e-07 1.66015e-06 0.0005 
1375 1 -0.0081128 -0.00948079 0.000933976 -6.78603e-05 -4.7964e-05 0.000165229 -1.44886e-07 -3.15019e-07 1.71855e-07 -2.41418e-07 -2.49173e-07 1.81137e-06 0.0005 
1658 1 -0.00634618 -0.0100627 0.00054144 -0.000290084 1.20057e-05 5.72582e-05 -1.84717e-07 -8.03934e-08 -9.74291e-08 -9.81004e-08 -5.18521e-08 1.1801e-06 0.0005 
110 1 -0.00455778 -0.0100543 0.00109128 -0.000269099 0.000697996 5.04223e-05 -1.3594e-07 3.1184e-07 2.26493e-07 -3.70864e-08 -5.95013e-09 2.08838e-06 0.0005 
1487 1 -0.00223579 -0.00992643 0.00125068 0.000168731 0.000272076 -5.24986e-05 4.69064e-08 -3.56277e-07 2.27621e-07 -6.03765e-08 -6.04757e-08 2.24009e-06 0.0005 
2090 1 -0.00144124 -0.00973286 0.000647817 -0.000136869 7.3151e-05 -0.000396494 6.91674e-07 -3.36118e-08 -2.07208e-07 -1.72494e-08 -9.18396e-08 1.17019e-06 0.0005 
2461 1 -0.00958444 -0.00929472 0.00111877 0.000400047 -0.00030535 0.000304422 1.76761e-07 -3.39525e-07 1.59434e-07 -7.08786e-08 -2.55345e-07 2.26864e-06 0.0005 
1750 1 -0.00397202 -0.00925103 0.000991638 0.000280657 0.000317727 0.000488615 2.72536e-07 -2.97979e-08 -1.82478e-07 8.69758e-09 -1.56502e-07 2.03708e-06 0.0005 
243 1 -0.00695643 -0.00838699 0.00121677 -5.17735e-05 9.84223e-05 -0.000119406 3.29776e-07 -7.46187e-07 4.91422e-08 -7.56409e-08 -1.19683e-07 3.00403e-06 0.0005 
948 1 -0.00517863 -0.00801508 0.000789252 -0.000236963 -9.55566e-05 -6.73986e-05 1.56285e-07 -1.14206e-07 -6.10639e-08 -5.72721e-08 -1.41888e-07 1.68136e-06 0.0005 
793 1 -0.00402962 -0.00822903 0.000735994 0.000394325 0.000471023 5.81158e-05 8.1977e-08 -3.06135e-07 -2.03007e-08 -5.96575e-08 -1.28738e-07 1.3839e-06 0.0005 
1694 1 -0.0017018 -0.00853078 0.00123275 0.000242404 0.000106286 0.000328217 4.20485e-08 -9.15951e-08 -1.59221e-07 -3.1588e-08 -2.16468e-07 2.25532e-06 0.0005 
842 1 -0.0100243 -0.0076432 0.00105847 -0.000484366 -0.000561286 0.00078955 -5.05278e-07 5.45945e-07 6.49303e-07 -3.58865e-08 -2.52381e-07 2.05212e-06 0.0005 
239 1 -0.00900924 -0.00742094 0.00114333 0.000465016 0.000113462 0.000134744 7.68429e-09 -3.2691e-08 2.59907e-07 -2.65166e-07 -1.6102e-07 2.24635e-06 0.0005 
13 1 -0.00304929 -0.00787032 0.00118896 0.000260292 7.39791e-05 0.000298026 6.2571e-07 5.90068e-09 7.5728e-09 -4.28298e-08 -1.15818e-07 2.36211e-06 0.0005 
1059 1 -0.00717662 -0.00674082 0.00118848 -0.000235208 -0.00010435 0.00030383 9.84449e-08 -2.36156e-07 -1.90286e-07 -2.52478e-07 -1.14425e-07 2.3181e-06 0.0005 
830 1 -0.00488229 -0.00642225 0.00105281 4.11819e-07 -5.75207e-05 0.000125568 1.55699e-07 2.1168e-07 2.16745e-07 5.24597e-08 -5.62971e-08 1.98008e-06 0.0005 
515 1 -0.00310678 -0.00650824 0.000807523 5.8322e-05 6.84751e-05 0.000119941 2.72266e-07 -4.30294e-08 -2.28574e-08 -2.04513e-07 -1.26514e-07 1.45764e-06 0.0005 
2336 1 -0.00168092 -0.00690946 0.000544355 0.000223506 0.000137839 0.000151274 1.93372e-07 2.00818e-07 4.65669e-08 -7.52761e-08 -2.61479e-07 9.99418e-07 0.0005 
2421 1 -0.000541316 -0.00706404 0.000968917 -1.14361e-05 0.000177944 -9.61955e-05 1.95243e-09 -2.19755e-07 -1.61378e-08 4.9846e-08 -3.47487e-07 2.04724e-06 0.0005 
1645 1 -0.00625501 -0.00560108 0.00113561 -0.00026233 -7.94467e-05 0.000139179 -3.97492e-08 -1.41106e-07 6.24171e-08 -5.37232e-08 -1.09193e-07 2.30575e-06 0.0005 
100 1 -0.00401462 -0.00568907 0.00124253 -3.40823e-05 0.000225753 7.3243e-05 -8.17567e-08 -4.3658e-07 1.1548e-07 6.00527e-08 3.13694e-08 2.26036e-06 0.0005 
2208 1 -0.00152664 -0.00571102 0.00107028 -2.4571e-05 0.000460276 8.24138e-05 1.45646e-07 3.14929e-07 -2.8097e-08 -1.29875e-07 -1.92621e-07 2.12795e-06 0.0005 
220 1 -0.00940165 -0.0055218 0.00114115 0.000155118 -5.04572e-05 7.6083e-05 1.60353e-07 1.91396e-07 -2.25119e-07 1.09662e-07 -1.05006e-07 2.2691e-06 0.0005 
1211 1 -0.00785044 -0.00549586 0.00101703 0.000254824 3.73982e-05 3.6351e-05 6.42826e-07 7.54048e-07 -1.4795e-07 -1.76857e-07 -1.06691e-07 1.89997e-06 0.0005 
565 1 -0.00329109 -0.00481684 0.00124812 -2.09636e-05 0.000111931 0.000126128 -7.66183e-10 -5.22721e-08 -8.97946e-09 -2.01288e-07 -2.76487e-08 2.31582e-06 0.0005 
2300 1 -0.0118219 -0.00397786 0.000868506 0.00019122 0.000117822 0.000294959 -1.6198e-07 -1.22648e-07 -3.69546e-07 9.63396e-08 -5.60511e-08 1.83574e-06 0.0005 
1986 1 -0.00647068 -0.00462744 0.0010793 9.76324e-05 7.34293e-05 0.00026623 -1.65548e-07 -7.17591e-08 -1.44007e-07 -7.36926e-08 -1.17899e-08 2.05393e-06 0.0005 
1236 1 -0.00459944 -0.00459015 0.00123272 -0.000105349 -0.000140426 0.000190333 2.68306e-09 2.05017e-07 4.73343e-08 -1.23471e-07 -1.19959e-08 2.19522e-06 0.0005 
483 1 -0.00250734 -0.00419655 0.00124598 -0.000183846 0.000411584 0.000261356 -5.79985e-08 7.36571e-08 1.61446e-07 -3.62969e-07 1.3096e-08 2.71251e-06 0.0005 
696 1 -0.0068725 -0.00370691 0.000761878 0.000126181 0.00026565 7.77403e-05 7.60064e-08 -2.40196e-07 2.11308e-07 -3.70578e-08 -1.84894e-08 1.41997e-06 0.0005 
704 1 -0.00148127 -0.0035457 0.000918873 -0.000233659 0.000672379 -1.39438e-06 -2.08284e-07 1.16917e-07 -1.30937e-07 -8.946e-08 9.78364e-08 1.77723e-06 0.0005 
2160 1 -7.78477e-05 -0.00355253 0.000917309 -0.000149139 0.00032518 0.00019138 2.09686e-07 -5.28092e-08 9.22496e-08 2.21837e-08 4.93029e-08 1.67026e-06 0.0005 
532 1 -0.0107952 -0.00314635 0.000985177 -0.000180247 -7.55602e-05 0.000131559 -1.32459e-07 -5.33178e-08 5.15428e-08 4.80485e-08 -1.03008e-07 1.88923e-06 0.0005 
1201 1 -0.00781779 -0.00277857 0.00118396 -4.01305e-05 0.000234699 -1.02398e-05 2.57409e-07 5.42368e-07 -4.34127e-07 -1.55042e-08 3.10948e-10 2.31009e-06 0.0005 
2224 1 -0.00855693 -0.00179899 0.00105599 8.67754e-05 0.000222335 -0.000103935 -1.06272e-07 5.17e-08 -9.43155e-08 3.17911e-10 9.69708e-09 1.86778e-06 0.0005 
1596 1 -0.00697413 -0.00180804 0.0010967 7.60491e-06 -8.45753e-05 2.07839e-05 -5.15131e-08 -4.92534e-08 -1.69842e-07 1.46973e-08 6.241e-08 1.90785e-06 0.0005 
2261 1 -0.00296269 -0.00176136 0.00074213 0.00321433 -0.0010898 -0.0136045 4.0802e-07 -3.72876e-07 -1.99741e-06 -1.94876e-07 1.75924e-08 1.27668e-06 0.0005 
78 1 -0.0116474 -0.00115221 0.000789936 -2.63046e-05 4.48707e-05 1.06157e-05 1.82843e-07 1.0106e-07 -2.30168e-08 2.21329e-07 1.62533e-07 1.6879e-06 0.0005 
367 1 -0.0100613 -0.00114212 0.00122238 3.56483e-05 -0.000117615 -9.83528e-05 2.74056e-07 -1.71576e-08 -3.21548e-07 1.75521e-07 5.47922e-08 2.28666e-06 0.0005 
5 1 -0.00506407 -0.00114408 0.00100023 0.00018082 0.00014403 -0.000421504 1.40292e-07 -3.81578e-07 -2.0532e-07 3.23298e-08 -7.00128e-08 1.73753e-06 0.0005 
1357 1 -0.00116679 -0.00104613 0.000853125 0.000115615 0.000235383 5.18228e-05 -3.93137e-07 -7.86617e-08 -4.94564e-08 -1.20316e-07 1.27824e-07 1.51409e-06 0.0005 
967 1 -0.0133492 -0.000207701 0.000558718 9.99731e-06 5.34752e-06 1.16533e-05 2.65516e-08 -1.43215e-07 2.34876e-07 1.23437e-07 2.41201e-07 1.89038e-06 0.0005 
2095 1 -0.01048 -0.000402227 0.000632736 1.78559e-05 -2.83784e-06 1.16971e-05 -2.28437e-07 1.03576e-07 1.009e-07 7.48619e-08 1.4453e-07 1.2225e-06 0.0005 
42 1 -0.00418005 -0.000692319 0.000888599 0.000323688 7.10122e-05 0.000109397 -2.80724e-07 7.4756e-08 -4.57827e-07 -1.25878e-08 -2.14879e-07 1.47443e-06 0.0005 
548 1 -0.00252002 -0.000549869 0.00114012 0.000135516 0.000258745 0.000101991 -2.5985e-07 2.96547e-07 -3.705e-07 -1.43889e-07 -1.31011e-07 2.05712e-06 0.0005 
805 1 -0.00292316 -0.0130132 0.00191458 0.0001276 -0.000317581 0.000423464 -6.12418e-07 2.11769e-08 6.68912e-08 -7.58633e-08 7.66994e-08 3.6359e-06 0.0005 
643 1 -0.00198962 -0.0132019 0.00161177 0.000196296 7.77487e-05 -2.50522e-05 -4.94465e-07 2.36529e-07 6.03282e-07 2.40839e-08 1.19795e-07 3.37189e-06 0.0005 
1951 1 -0.000908196 -0.0133191 0.00130988 -0.000588913 1.78968e-06 -0.000191253 -1.39688e-07 1.51872e-07 1.64834e-07 5.39169e-08 8.56547e-08 2.88046e-06 0.0005 
1971 1 -0.00013905 -0.0126734 0.00125637 -0.000305135 0.000111706 0.000348184 6.35035e-07 3.30395e-07 -2.64694e-07 4.21563e-08 -2.76186e-08 2.01493e-06 0.0005 
2416 1 -0.000184979 -0.0133487 0.00199962 -0.000626504 0.000117187 -0.000152178 4.95155e-07 2.28066e-07 -3.97617e-07 -1.01279e-07 7.96589e-09 3.48081e-06 0.0005 
2017 1 -0.00570894 -0.01196 0.00127246 -5.82203e-05 0.00109109 0.000308285 -7.64191e-08 -1.21473e-06 -8.35082e-07 -1.32247e-07 1.39032e-07 2.67344e-06 0.0005 
527 1 -0.00434903 -0.012622 0.00169847 5.45243e-05 2.27426e-06 0.000249477 -6.67367e-07 3.13846e-07 -4.57885e-07 -6.7887e-08 9.40166e-08 3.19136e-06 0.0005 
2327 1 -0.00336666 -0.0120788 0.00148827 -2.91949e-05 9.86523e-05 0.000299237 -2.48423e-07 2.19789e-07 -7.4926e-08 -7.79054e-08 9.67993e-08 2.87602e-06 0.0005 
886 1 -0.00238711 -0.0122695 0.00143324 -1.08667e-07 0.000192458 0.000491716 -2.1269e-07 3.80836e-08 -1.00066e-07 -1.97976e-08 1.07915e-07 2.82371e-06 0.0005 
848 1 -0.00142067 -0.0124618 0.00125631 9.0998e-05 0.000367834 0.000105622 -2.49489e-08 -7.06244e-08 2.18638e-07 7.78615e-08 1.7419e-07 2.81499e-06 0.0005 
125 1 -0.000677858 -0.0119451 0.00167876 2.19776e-05 0.000343827 0.000464998 1.87494e-07 -4.66741e-08 -4.16395e-07 -6.72871e-08 1.24864e-07 3.18224e-06 0.0005 
2456 1 -0.00683248 -0.0114692 0.00140092 -0.000137205 0.000207129 -0.000319403 2.93173e-07 -3.24133e-07 -1.42131e-06 -1.51509e-07 1.17841e-07 2.8124e-06 0.0005 
461 1 -0.0054199 -0.0112636 0.00193145 0.000375157 4.18465e-05 -0.000436482 2.90055e-07 1.49408e-06 1.63854e-06 -5.97242e-08 1.30697e-07 3.58366e-06 0.0005 
2263 1 -0.00450712 -0.0116703 0.00196054 0.000579002 0.000374898 -0.000202404 -7.45562e-07 5.78708e-08 -1.71079e-07 -3.01269e-08 1.23243e-07 3.58461e-06 0.0005 
1851 1 -0.00379808 -0.0111947 0.00131157 -0.000276242 -7.22817e-05 1.25007e-05 -7.75161e-09 2.45681e-07 -8.463e-08 -1.73221e-08 1.41217e-07 2.60802e-06 0.0005 
947 1 -0.00270856 -0.0113263 0.00135527 -7.41331e-05 0.000107061 0.000255287 -1.41503e-07 -1.00013e-07 -3.15214e-07 -3.11866e-08 1.22129e-07 2.63882e-06 0.0005 