ITEM: TIMESTEP
20000
ITEM: NUMBER OF ATOMS
10000
ITEM: BOX BOUNDS mm mm mm
-0.015 0.015
-0.015 0.015
-0.001 0.0554
ITEM: ATOMS id type x y z vx vy vz fx fy fz f_dragforce[1] f_dragforce[2] f_dragforce[3] radius 
1359 1 -0.00149525 -0.0132655 0.000499738 2.41604e-05 -0.000190576 3.00184e-05 -3.24103e-07 2.27295e-07 2.201e-07 1.58496e-07 2.83685e-07 2.20721e-06 0.0005 
637 1 -0.00304139 -0.0122375 0.000499544 0.000173421 3.93562e-05 -2.10761e-05 -5.82279e-08 2.39581e-07 8.55797e-08 -1.31979e-08 2.51599e-07 1.44863e-06 0.0005 
1496 1 -0.00206256 -0.0124421 0.000499786 0.000356196 4.79278e-05 8.7971e-05 1.90767e-07 1.55498e-07 -1.30953e-07 1.31893e-07 3.32271e-07 1.55848e-06 0.0005 
502 1 -0.000774857 -0.0125194 0.000499529 -0.000244886 -4.04005e-05 8.62916e-05 -5.3257e-07 5.71017e-07 -8.97478e-08 1.6438e-07 2.89443e-07 1.4219e-06 0.0005 
1195 1 -0.00707103 -0.0111105 0.000499636 -0.000176292 -8.21512e-05 2.27295e-05 -4.7221e-08 -5.49232e-08 2.82888e-07 -4.71457e-07 1.67634e-08 1.76303e-06 0.0005 
1356 1 -0.00631143 -0.0117608 0.000499751 0.000150299 0.000183597 7.92091e-06 -2.64896e-07 -4.44856e-07 1.88845e-07 -3.87654e-07 1.40271e-07 1.9766e-06 0.0005 
939 1 -0.00514888 -0.0116591 0.000499588 3.19875e-05 0.000175905 7.96654e-05 -6.88944e-07 -5.02543e-07 1.29482e-07 -2.11035e-07 1.32891e-07 1.49074e-06 0.0005 
1758 1 -0.00414715 -0.0116546 0.000499779 6.20587e-05 -0.000187616 3.90291e-05 3.99122e-07 1.13017e-07 1.53901e-07 -4.9601e-08 1.74119e-07 1.31882e-06 0.0005 
656 1 -0.00321962 -0.0112538 0.000499694 4.08534e-05 -1.71518e-05 -4.01453e-05 3.19636e-07 4.6494e-07 1.33707e-07 1.83831e-07 2.45868e-07 1.30708e-06 0.0005 
758 1 -0.00220587 -0.0114491 0.000499719 -5.94134e-05 -0.00037548 6.41148e-05 2.40649e-08 4.98672e-07 2.56465e-07 5.2773e-08 1.79448e-07 1.27029e-06 0.0005 
319 1 -0.00114605 -0.0115373 0.000499763 -0.000452014 0.000251678 -4.0777e-05 1.75382e-08 -1.10334e-07 -9.52652e-08 -3.0143e-08 9.54198e-08 1.25407e-06 0.0005 
511 1 -1.2404e-05 -0.0111112 0.000499569 0.00017678 -0.000403823 -1.02974e-05 -8.97014e-07 7.1126e-07 5.01992e-07 -5.92558e-08 -9.85644e-08 1.24962e-06 0.0005 
1144 1 -0.00802773 -0.0106668 0.000499801 7.18534e-05 -7.29044e-05 1.21616e-05 -4.70751e-08 5.53413e-08 -4.33748e-08 -5.97019e-07 -1.29937e-07 1.65885e-06 0.0005 
353 1 -0.00577607 -0.0108805 0.000499676 0.000227796 0.00023643 -1.92686e-05 -1.15711e-07 -3.14969e-07 -7.79924e-08 -2.54558e-07 -3.89456e-08 1.36504e-06 0.0005 
1818 1 -0.00393954 -0.0105599 0.000499651 1.30101e-07 0.00012759 -0.00012702 3.27689e-07 -4.84864e-08 7.83556e-07 1.74369e-07 1.51671e-07 1.30486e-06 0.0005 
1873 1 -0.00258413 -0.010482 0.000499581 -0.00013219 0.000257871 0.000109538 1.32458e-07 8.24204e-07 3.46326e-07 1.17276e-07 -2.67902e-09 1.27115e-06 0.0005 
2211 1 -0.000750097 -0.0104354 0.000499562 0.000101054 -3.37194e-05 -1.7565e-05 5.02577e-07 -5.89396e-08 -3.74364e-07 -9.65711e-08 -2.42717e-07 1.26732e-06 0.0005 
647 1 -0.00885977 -0.00998646 0.000499751 0.000149968 -3.39702e-05 -4.17839e-05 9.82674e-09 1.01151e-08 7.77982e-08 -4.87451e-07 -2.79916e-07 1.59757e-06 0.0005 
542 1 -0.00733858 -0.00994244 0.000499593 2.82105e-06 -1.65931e-05 5.02016e-05 -5.71222e-08 1.15989e-08 -4.51478e-08 -6.04676e-07 -1.84968e-07 1.29351e-06 0.0005 
1585 1 -0.00535537 -0.00993759 0.000499616 3.36781e-05 4.21122e-05 -5.69434e-05 -1.17761e-07 -8.22035e-08 7.22432e-08 -8.34874e-08 -1.65487e-07 1.36023e-06 0.0005 
2142 1 -0.00325467 -0.0097404 0.000499648 -0.000111915 0.00014702 -0.000115942 -4.27729e-07 1.30023e-07 2.5916e-07 4.68869e-08 -5.65487e-08 1.30409e-06 0.0005 
2090 1 -0.00147135 -0.00974275 0.000499808 -0.000625225 -0.000551135 -4.8043e-06 -3.88168e-09 -5.92474e-07 1.16424e-07 -5.21879e-08 -6.53569e-07 1.30316e-06 0.0005 
2330 1 -0.00886238 -0.00898662 0.000499463 7.62825e-05 -1.19458e-05 2.92811e-05 -6.5795e-08 1.52867e-07 3.62372e-09 -5.04604e-07 -2.74423e-07 1.1466e-06 0.0005 
733 1 -0.0068081 -0.00907078 0.000499693 -5.59753e-05 2.90203e-05 -1.53921e-05 4.22312e-09 -1.49128e-07 -1.22757e-07 -4.30005e-07 -1.55381e-09 1.30272e-06 0.0005 
1443 1 -0.00575327 -0.00889162 0.000499708 5.33137e-05 -7.77893e-05 -6.39571e-06 -3.4226e-08 -4.41209e-08 -1.15167e-08 -1.28376e-07 5.55126e-08 1.40015e-06 0.0005 
1221 1 -0.00475346 -0.00887092 0.000499577 -0.000128028 0.000130366 -1.43816e-05 -2.25989e-07 2.44901e-07 -7.03566e-08 1.92607e-08 7.23565e-08 1.39969e-06 0.0005 
388 1 -0.00320695 -0.00874166 0.000499783 -0.000223286 0.000106082 -0.000113237 1.65268e-07 2.10244e-08 2.66204e-08 -1.0218e-07 4.98486e-09 1.30846e-06 0.0005 
823 1 -0.00235252 -0.00926972 0.000499728 0.000659817 0.000369034 0.000157319 1.63896e-07 2.14966e-06 2.53516e-07 -6.74873e-08 -2.61005e-07 1.30519e-06 0.0005 
714 1 -0.00108572 -0.00881713 0.00049946 -0.000388747 -0.000154556 0.000299139 -5.84751e-08 -1.5345e-06 -5.7174e-07 -1.11033e-07 -6.32198e-07 1.3437e-06 0.0005 
462 1 -8.71786e-05 -0.00886582 0.000499562 -0.000342968 -0.000164215 0.000120941 3.70792e-07 2.98886e-07 -2.70773e-07 -5.60867e-08 -3.801e-07 1.16277e-06 0.0005 
529 1 -0.0102109 -0.0086003 0.000499799 1.37301e-05 -2.84451e-05 9.23487e-10 -1.93372e-07 1.7878e-07 -5.20871e-10 1.66351e-07 -5.15198e-07 1.60104e-06 0.0005 
359 1 -0.00934037 -0.00810844 0.00049966 3.54723e-06 -4.79217e-05 9.42223e-06 -2.53321e-07 8.92271e-08 1.17064e-08 -3.90304e-07 -2.46603e-07 1.17184e-06 0.0005 
1505 1 -0.00808217 -0.00836128 0.000499758 -4.46779e-05 8.80829e-05 -8.92753e-06 -5.70425e-08 2.09023e-07 -1.13311e-07 -5.63885e-07 -7.06293e-09 1.14457e-06 0.0005 
2252 1 -0.00614054 -0.0079686 0.000499742 -0.000230468 -0.00012689 -2.58529e-05 -1.90152e-07 3.11892e-07 -1.64148e-07 -2.13153e-07 3.10794e-07 1.29059e-06 0.0005 
2042 1 -0.00232535 -0.00827004 0.000499801 -0.000227686 1.03867e-05 0.000107115 1.41777e-06 -1.02476e-06 -9.21171e-07 -3.80781e-07 -1.62089e-07 1.30373e-06 0.0005 
1539 1 -0.010837 -0.00779643 0.000499767 3.20455e-06 1.70265e-06 3.2149e-06 -9.81251e-08 3.88771e-07 -1.64565e-08 3.38045e-07 -4.28509e-07 1.86395e-06 0.0005 
986 1 -0.00812919 -0.00736251 0.000499777 -0.000481952 8.00999e-05 1.66588e-05 4.75408e-07 1.72721e-07 1.1722e-08 -6.59954e-07 -1.09287e-07 1.22097e-06 0.0005 
1847 1 -0.00710239 -0.0076952 0.000499609 -9.26838e-05 -7.37514e-05 -2.96631e-05 -2.91675e-07 -2.83225e-07 -8.80865e-08 -3.97528e-07 2.15747e-07 1.33258e-06 0.0005 
1447 1 -0.0055818 -0.0071061 0.000499778 0.000815594 0.000478237 5.43507e-05 -3.98153e-07 3.14799e-07 2.61048e-08 -9.70371e-08 3.65596e-07 1.30225e-06 0.0005 
1848 1 -0.0045922 -0.00725734 0.000499665 7.20975e-05 8.02726e-05 -3.25544e-05 -3.03833e-07 -1.98935e-07 -1.33341e-07 -7.83029e-08 5.13465e-07 1.37215e-06 0.0005 
2417 1 -0.00359315 -0.00734135 0.000499697 -0.000127814 0.000190722 -5.58619e-06 -1.78769e-08 1.81462e-07 -5.62327e-09 -3.96647e-07 3.07448e-07 1.34062e-06 0.0005 
1462 1 -0.00259384 -0.00730697 0.000499502 -0.000138259 3.40077e-05 -2.74733e-05 9.91086e-08 2.30158e-08 1.05978e-07 -6.13828e-07 3.81645e-08 1.30839e-06 0.0005 
46 1 -0.00131336 -0.00784367 0.000499691 -3.23143e-05 8.68229e-05 3.09262e-05 -8.86183e-08 -6.44259e-07 2.94393e-07 -1.74103e-07 -6.17205e-07 1.50562e-06 0.0005 
1432 1 -0.000188285 -0.00787117 0.000499686 -0.000259834 -3.05111e-05 4.94141e-05 4.43242e-07 4.01932e-07 -9.54436e-08 1.18922e-07 -4.10791e-07 1.32714e-06 0.0005 
2195 1 -0.0115944 -0.00660223 0.000499642 -8.4427e-05 2.74035e-05 4.9543e-06 1.86075e-07 -1.08133e-07 -3.39155e-09 6.46177e-07 -1.27977e-07 2.2097e-06 0.0005 
1429 1 -0.0105939 -0.00682632 0.000499805 -1.57506e-05 -0.000377103 3.85535e-06 9.37444e-08 2.17477e-09 -2.73972e-09 3.86464e-07 -1.51189e-07 1.29708e-06 0.0005 
551 1 -0.00959985 -0.0069354 0.000499713 1.29374e-05 -7.9696e-05 -4.90368e-06 4.60663e-08 3.87309e-08 -1.20386e-07 -1.04041e-07 -1.55111e-07 1.19538e-06 0.0005 
1263 1 -0.00880696 -0.0063261 0.000499807 -0.000388344 0.000460145 2.02583e-06 2.19977e-07 1.1924e-07 -6.84476e-08 -2.86321e-07 -1.48402e-07 1.23148e-06 0.0005 
490 1 -0.0077956 -0.00634437 0.000499599 -0.000243356 -6.19943e-05 1.26016e-05 -1.40783e-07 1.18787e-07 2.55191e-08 -4.57164e-07 1.93961e-08 1.27156e-06 0.0005 
1485 1 -0.00647187 -0.0065831 0.000499748 -5.85089e-05 0.000242528 -7.65732e-06 -6.55895e-07 -2.37685e-07 -1.65017e-07 -1.27957e-07 1.56498e-07 1.30559e-06 0.0005 
74 1 -0.00405526 -0.006398 0.0004997 -0.000170643 1.46426e-05 -2.08798e-05 -7.05116e-07 2.90311e-08 -8.26102e-08 -1.46713e-07 3.94581e-07 1.20447e-06 0.0005 
606 1 -0.0109674 -0.0058208 0.000499807 -3.25094e-05 -0.000173589 -3.638e-06 1.02327e-07 -4.04144e-08 -9.6977e-08 5.68143e-07 -2.24882e-09 1.48215e-06 0.0005 
1293 1 -0.00998615 -0.00601309 0.000499756 3.81844e-06 -9.52245e-05 4.71131e-05 2.04453e-07 7.99577e-08 1.59011e-07 4.74178e-07 -3.19687e-08 1.29259e-06 0.0005 
1248 1 -0.00702142 -0.00571141 0.00049974 -0.000103166 -0.000186662 -1.40127e-05 -3.20712e-07 5.18455e-08 -6.21725e-08 -2.57675e-07 9.55892e-08 1.29135e-06 0.0005 
1101 1 -0.00561307 -0.00602294 0.000499601 -0.000160798 0.000110178 3.65763e-05 -5.84671e-07 1.24858e-07 3.6103e-08 1.29416e-08 1.98571e-07 1.30672e-06 0.0005 
817 1 -0.00467703 -0.00560893 0.000499634 -0.000294734 8.30509e-05 -6.62228e-05 -3.38663e-07 1.1181e-07 1.86801e-09 -3.81573e-08 3.60515e-07 1.20468e-06 0.0005 
1969 1 -0.0033495 -0.00558855 0.000499583 -0.000222198 1.84947e-05 2.41488e-05 -2.74183e-07 3.40183e-07 2.44839e-07 -8.07486e-07 -1.30683e-08 1.18564e-06 0.0005 
266 1 -0.00225335 -0.00609732 0.000499643 -0.000197279 7.6532e-05 3.71001e-05 -1.47716e-07 5.45383e-07 1.15325e-07 -1.08389e-06 -3.40643e-07 1.17302e-06 0.0005 
1477 1 -0.000922648 -0.00625608 0.000499637 -0.000166361 7.11254e-05 2.30495e-05 -3.16571e-07 4.33584e-07 7.99808e-08 -2.21406e-07 -1.86411e-07 1.529e-06 0.0005 
740 1 -7.97166e-05 -0.00560169 0.000499647 0.00053972 -0.000589427 4.46353e-05 -5.45722e-07 6.27839e-07 -1.09442e-07 4.60165e-07 -1.80413e-07 1.18727e-06 0.0005 
1091 1 -0.012172 -0.00548349 0.000499744 2.26674e-05 -2.98774e-06 -5.41886e-07 -1.2927e-07 1.06993e-07 9.64708e-08 4.71421e-07 6.6644e-08 2.3296e-06 0.0005 
900 1 -0.0113595 -0.00490089 0.000499673 0.000147328 -0.000124208 -1.99213e-05 -5.05394e-08 -1.91833e-09 1.42529e-07 4.16637e-07 1.02739e-07 1.16619e-06 0.0005 
1315 1 -0.010305 -0.00483664 0.000499603 -2.68428e-05 -6.94772e-05 -1.79198e-06 -2.85163e-07 3.0397e-07 5.83556e-08 4.24012e-07 6.30437e-08 1.28474e-06 0.0005 
53 1 -0.00867222 -0.00527673 0.000499564 4.94623e-05 3.94769e-05 1.37507e-05 -1.37629e-07 2.74159e-07 -4.73891e-08 2.29526e-08 -9.81835e-08 1.25559e-06 0.0005 
1403 1 -0.00564694 -0.00495729 0.000499715 -0.000305553 -0.00025257 -1.00247e-05 -2.34354e-07 2.61313e-07 -1.91021e-07 -2.32831e-08 1.68184e-07 1.29404e-06 0.0005 
2181 1 -0.00394928 -0.00478868 0.000499654 0.000489556 0.00048731 -2.48758e-05 -2.65905e-07 -1.39042e-07 7.78322e-08 -6.37941e-07 1.30961e-07 1.16473e-06 0.0005 
152 1 -0.00256773 -0.00496532 0.000499765 -0.00030924 0.000266807 1.84806e-05 -8.80109e-08 1.17805e-07 -5.53152e-08 -9.8575e-07 -8.73536e-08 1.3679e-06 0.0005 
262 1 -0.000954994 -0.00509449 0.000499739 2.04747e-05 0.000113817 4.24395e-05 -5.1134e-08 2.7817e-07 -3.23295e-07 -1.79579e-07 9.49779e-08 1.42692e-06 0.0005 
890 1 -0.0125484 -0.00455655 0.000499661 0.00010156 -0.000159152 7.46001e-05 -4.93014e-07 3.18436e-07 -2.17244e-07 1.6712e-07 2.24177e-07 2.15986e-06 0.0005 
2 1 -0.0108838 -0.00402137 0.000499662 9.83838e-05 -5.26757e-05 -6.70184e-07 -4.90088e-07 3.4963e-07 -5.70391e-08 2.32347e-07 9.26898e-08 1.24818e-06 0.0005 
12 1 -0.00938067 -0.00444873 0.00049978 0.000412787 0.000390446 -3.01419e-06 -4.5007e-07 1.66737e-07 7.26847e-09 1.13932e-07 1.59071e-08 1.26701e-06 0.0005 
1415 1 -0.00838538 -0.00431882 0.000499746 0.000275766 -0.000123852 -7.36979e-08 -4.73081e-07 4.79497e-07 2.51844e-08 2.00229e-08 -2.64289e-08 1.22001e-06 0.0005 
93 1 -0.00728015 -0.00467353 0.000499762 -0.000153221 0.000413887 3.28572e-05 -1.70431e-07 4.12082e-08 -3.61923e-08 -2.4681e-08 -2.26334e-08 1.20863e-06 0.0005 
2064 1 -0.00595007 -0.00400455 0.000499538 -0.000110654 -0.000180262 -2.14859e-05 -1.20213e-07 1.87212e-07 6.78754e-08 3.91277e-08 1.20078e-07 1.29021e-06 0.0005 
1452 1 -0.00495082 -0.00403509 0.000499639 -0.000152657 -0.000267264 2.30047e-05 -1.10594e-07 2.81179e-07 8.94069e-08 -2.27481e-07 1.77492e-07 1.19311e-06 0.0005 
1459 1 -0.00317006 -0.00415716 0.000499637 0.000199503 0.000575984 -2.04301e-05 -6.72363e-07 -3.29035e-08 2.01395e-07 -9.53136e-07 1.68091e-08 1.38946e-06 0.0005 
1507 1 -0.00173588 -0.00441051 0.000499776 -0.00027854 0.000134171 2.98136e-05 -3.13773e-07 -6.23787e-08 8.5169e-08 -6.69155e-07 1.5808e-07 1.39341e-06 0.0005 
2217 1 -0.000775654 -0.0041107 0.000499597 -0.000109414 0.000117003 -3.35353e-06 -2.82507e-07 -3.37327e-07 -1.96005e-07 8.29041e-10 4.78795e-07 1.36116e-06 0.0005 
982 1 -0.0128961 -0.00345174 0.000499769 0.000164679 1.38553e-06 0.000394445 -1.98285e-07 1.09685e-06 -1.50883e-06 6.4718e-08 2.23231e-07 2.1385e-06 0.0005 
1544 1 -0.00999134 -0.0035649 0.000499801 -2.57544e-05 -0.00027567 4.30586e-06 4.37185e-08 7.52397e-08 1.29264e-08 5.84457e-08 8.25794e-08 1.27611e-06 0.0005 
2007 1 -0.00899226 -0.00352138 0.000499807 -5.61915e-05 -0.000416675 1.51195e-06 -9.92715e-08 1.31314e-07 8.81752e-09 -1.14545e-07 1.37918e-07 1.30777e-06 0.0005 
1617 1 -0.00781063 -0.00350065 0.000499611 1.74855e-05 -6.95883e-06 -2.62228e-05 2.40941e-07 -4.86985e-08 1.41599e-07 2.15534e-08 4.72781e-08 1.30378e-06 0.0005 
230 1 -0.00402139 -0.00363287 0.000499782 1.46124e-05 0.000291726 -3.14261e-05 -4.38753e-07 5.31188e-07 -4.36439e-07 -5.53006e-07 1.44277e-07 1.14872e-06 0.0005 
1067 1 -0.00238937 -0.00353198 0.000499713 -0.000221791 0.000666977 -6.17325e-06 -8.85964e-07 -1.13916e-06 -2.6629e-07 -9.11923e-07 2.07918e-07 1.29656e-06 0.0005 
9 1 -0.0130722 -0.0024674 0.00049969 7.97086e-05 -0.000171452 -2.95645e-05 1.63948e-07 9.71982e-08 1.65344e-07 6.4303e-08 3.90126e-08 2.1612e-06 0.0005 
2406 1 -0.0116595 -0.00305843 0.000499686 8.14528e-05 0.000114827 3.69759e-05 -3.32066e-08 1.23305e-07 -1.16947e-07 1.35593e-07 1.02484e-07 1.30036e-06 0.0005 
178 1 -0.00952973 -0.00267755 0.000499747 4.23193e-06 3.81429e-05 6.5342e-06 -1.12702e-07 2.85576e-07 7.04996e-08 -1.19089e-07 1.17328e-07 1.30939e-06 0.0005 
1238 1 -0.00852864 -0.00263515 0.000499641 -4.80488e-05 -2.72951e-05 -3.18432e-05 2.81819e-08 1.52235e-07 1.67402e-08 -8.32475e-08 9.68967e-08 1.32118e-06 0.0005 
1610 1 -0.00705302 -0.00273423 0.000499768 -6.07475e-05 -2.6916e-05 -9.80206e-06 1.0155e-07 1.29978e-07 6.96783e-08 1.18892e-07 1.25192e-07 1.31055e-06 0.0005 
391 1 -0.00606993 -0.00291651 0.000499789 -0.000122311 -0.000390188 -1.25324e-06 9.31801e-08 1.80839e-07 -2.88414e-08 2.81179e-07 2.05602e-07 1.24737e-06 0.0005 
1178 1 -0.0050781 -0.00304331 0.000499772 -0.000142754 -0.000256482 2.11827e-05 6.20165e-08 1.88285e-07 -1.58883e-07 -1.93673e-08 1.14871e-07 1.15523e-06 0.0005 
1798 1 -0.00416538 -0.00263503 0.000499707 -0.00026111 -0.000288526 -2.01209e-06 8.05631e-08 3.00693e-07 -2.99254e-07 -2.77898e-07 -4.62202e-09 1.10371e-06 0.0005 
619 1 -0.0032325 -0.00299475 0.000499683 2.61809e-05 0.000949231 0.000123983 -1.09907e-08 4.28998e-08 -6.11892e-08 -7.90438e-07 2.22579e-07 1.10507e-06 0.0005 
38 1 -0.00211615 -0.00246666 0.000499644 0.000995125 -9.42801e-05 -6.58918e-05 -3.00355e-07 -1.58572e-09 5.29621e-07 -8.44976e-07 3.22922e-07 1.10279e-06 0.0005 
736 1 -0.000804533 -0.00293216 0.000499747 -0.00042903 0.000325949 4.72926e-06 1.7611e-07 -1.90219e-07 5.39522e-07 -3.84734e-07 4.15539e-07 1.37155e-06 0.0005 
186 1 -0.0124322 -0.00169933 0.000499568 0.000104622 -0.0001352 -9.57172e-06 -1.77639e-07 3.01002e-07 1.05137e-07 1.31497e-07 -1.10857e-07 1.43297e-06 0.0005 
459 1 -0.0114372 -0.00208347 0.000499806 0.000113119 4.67881e-05 -8.43351e-06 -1.25602e-07 2.39838e-07 7.476e-08 1.87507e-07 -5.40907e-08 1.33243e-06 0.0005 
866 1 -0.01047 -0.00233716 0.000499741 9.5874e-05 2.94438e-05 3.5824e-06 -3.49781e-07 5.67846e-07 -6.29821e-08 8.39434e-08 -2.92723e-08 1.1936e-06 0.0005 
1411 1 -0.00937589 -0.00168583 0.000499723 5.86784e-05 8.86381e-05 4.33403e-05 6.82823e-08 -6.83765e-08 7.12133e-08 5.76406e-09 -1.13151e-07 1.23277e-06 0.0005 
1278 1 -0.0077448 -0.00201239 0.00049963 5.57691e-05 0.000110829 -3.01719e-05 6.08239e-08 4.56891e-07 -1.39387e-07 -9.49592e-09 1.08055e-07 1.31702e-06 0.0005 
62 1 -0.005962 -0.0018876 0.000499755 -0.000186349 -0.000165268 4.09998e-05 -2.53882e-07 1.43136e-07 -8.11456e-08 1.38615e-07 1.14105e-07 1.23908e-06 0.0005 
1669 1 -0.00497518 -0.0020487 0.000499658 -0.00020443 -0.000114575 -5.02857e-05 -3.48318e-07 -4.52165e-07 3.04046e-07 -5.27982e-08 -7.31441e-09 1.08638e-06 0.0005 
2261 1 -0.00289123 -0.00183412 0.000499736 9.06844e-06 -0.000939227 5.68701e-05 -1.80056e-07 5.57232e-07 -4.52786e-07 -7.31991e-07 5.74677e-08 1.12812e-06 0.0005 
695 1 -0.00124429 -0.00195873 0.000499746 -0.000108287 -0.000506993 7.47497e-05 -6.34816e-07 2.63657e-08 -2.22655e-08 -5.95069e-07 2.34529e-07 1.36124e-06 0.0005 
1530 1 -0.0132871 -0.00118066 0.000499826 -0.000224087 -0.00069057 -8.26769e-07 -2.25592e-07 2.57223e-07 -8.77688e-09 8.92613e-08 -8.89382e-08 2.25261e-06 0.0005 
1654 1 -0.0107125 -0.00136703 0.000499595 8.58468e-05 -2.05352e-05 7.02442e-05 1.45721e-07 2.43875e-07 9.18619e-08 1.98871e-07 -1.26075e-07 1.35018e-06 0.0005 
299 1 -0.00767009 -0.000988569 0.000499808 -0.000172144 -0.000214806 -4.35874e-05 3.6198e-08 5.25863e-08 6.67949e-08 -1.16713e-07 1.90869e-07 1.27205e-06 0.0005 
98 1 -0.00667288 -0.00106304 0.000499575 4.01754e-05 0.000188479 1.7645e-05 5.83629e-09 2.58532e-07 1.14429e-07 1.56174e-08 1.46778e-07 1.23413e-06 0.0005 
1060 1 -0.00385702 -0.00157496 0.000499662 0.000195938 0.00015768 -8.21624e-05 6.2911e-08 6.77159e-07 1.44996e-07 -4.38967e-07 -1.94819e-07 1.08394e-06 0.0005 
781 1 -0.00204713 -0.0012982 0.000499702 -0.000422511 -0.000526669 9.45915e-05 -1.88534e-07 7.72143e-07 7.96581e-08 -7.0143e-07 -7.22654e-08 1.19411e-06 0.0005 
1955 1 -0.000326425 -0.00147724 0.000499586 -0.000253837 0.000102299 8.83387e-05 -2.40188e-08 -5.91632e-08 4.04599e-07 -4.31952e-07 1.18144e-08 1.30072e-06 0.0005 
967 1 -0.0133489 -0.000179731 0.000499792 -3.84123e-06 -3.16521e-05 -2.06197e-06 -8.47718e-08 -2.66714e-07 1.52772e-07 1.45158e-07 4.72642e-09 2.30214e-06 0.0005 
1675 1 -0.0124487 -0.000614872 0.000499706 -8.42244e-05 -0.000184761 -1.23049e-05 1.91256e-07 2.31091e-07 1.54447e-07 1.56539e-07 -1.13669e-07 1.4376e-06 0.0005 
2125 1 -0.0114993 -8.62143e-05 0.000499669 0.000249354 0.000349742 -1.8575e-05 -1.38275e-07 2.53719e-07 8.56539e-08 1.74536e-07 1.04906e-08 1.41166e-06 0.0005 
2169 1 -0.00953021 -0.000697913 0.000499682 3.68387e-05 6.29287e-05 -1.15067e-05 -1.14253e-07 1.55374e-07 2.33018e-07 1.06661e-07 -2.01614e-07 1.22349e-06 0.0005 
6577 1 -0.00858261 -0.000378868 0.000499602 3.61668e-05 0.00015248 5.35589e-06 -2.88066e-07 3.10771e-07 -6.96541e-08 1.13067e-07 7.33748e-08 1.21525e-06 0.0005 
6638 1 -0.00682525 -7.49039e-05 0.000499647 0.000209403 0.000219478 -5.51008e-05 -1.5871e-07 4.51477e-08 -5.52788e-09 1.44972e-08 2.52872e-07 9.89848e-07 0.0005 
1600 1 -0.0057635 -0.000647302 0.000499653 0.000171606 0.000104086 -2.90744e-05 -1.75494e-07 -2.11576e-08 -7.89137e-08 -1.01133e-07 3.83664e-08 1.22229e-06 0.0005 
108 1 -0.00326342 -0.000769532 0.000499703 -0.000160142 -0.0022718 -3.05112e-06 -1.32758e-07 -4.44908e-08 -6.73567e-08 -6.03869e-07 -2.46063e-07 1.15681e-06 0.0005 
288 1 -0.00178496 -0.000333093 0.00049974 -0.000571336 -0.000330534 0.000161355 -3.21364e-08 4.06638e-07 4.3269e-07 -5.59807e-07 -1.69052e-07 1.22971e-06 0.0005 
1934 1 -0.000385529 -0.000477707 0.000499493 -0.000592447 4.48309e-06 2.12291e-05 3.42119e-07 9.74294e-08 1.93349e-07 -3.22627e-07 9.64173e-10 1.32218e-06 0.0005 
1180 1 -0.00374068 -0.0128154 0.000919653 -4.79342e-05 4.92632e-06 -0.000271944 6.05536e-08 -1.26886e-07 -5.80881e-07 -1.27613e-07 1.74294e-07 2.72467e-06 0.0005 
1047 1 -0.00270585 -0.0130731 0.00093363 0.000509188 -0.000131022 -0.000671773 1.20158e-07 2.75726e-07 5.33396e-07 2.34376e-08 2.44685e-07 2.81798e-06 0.0005 
1971 1 -0.000136916 -0.0126724 0.00125375 -0.000293432 -0.000347549 0.000223396 -7.71997e-07 1.25266e-06 3.66897e-07 9.33981e-08 -1.2255e-07 2.79179e-06 0.0005 
2053 1 -0.00467401 -0.0125053 0.000740102 -4.98852e-05 -1.33719e-05 -0.000267868 -3.33548e-07 -2.9715e-07 1.73915e-07 -2.06056e-07 2.11358e-07 2.46809e-06 0.0005 
427 1 -0.00477336 -0.0110117 0.00116243 -2.50513e-05 0.000249048 3.38545e-05 -1.60521e-06 -8.52918e-07 3.72722e-07 -3.0752e-08 3.41973e-08 2.57998e-06 0.0005 
2081 1 -0.00166159 -0.0106776 0.000830942 0.000157184 2.85543e-05 2.85747e-05 3.4883e-07 7.36144e-07 -3.49954e-07 -5.30283e-08 -5.75019e-08 1.93827e-06 0.0005 
1375 1 -0.00811266 -0.00948385 0.000935306 -0.000114736 -0.000208115 1.94275e-05 -6.90644e-08 2.37236e-07 -1.51787e-07 -6.84823e-07 -2.46092e-07 2.39584e-06 0.0005 
1658 1 -0.00634671 -0.0100605 0.000540894 3.55361e-05 7.00105e-05 2.69069e-05 3.48578e-08 -5.38258e-08 -1.93956e-08 -3.10796e-07 -1.96687e-07 1.47411e-06 0.0005 
110 1 -0.00455514 -0.0100388 0.00109023 7.86862e-05 0.000218934 -0.000230018 -4.96483e-07 -1.21961e-07 9.25436e-07 2.99805e-08 -3.34813e-08 2.43077e-06 0.0005 
1487 1 -0.0022365 -0.00992025 0.00125003 0.000248552 -0.000134107 1.81853e-05 2.7008e-07 1.90978e-06 4.36238e-07 -2.53484e-08 -2.25871e-07 2.64938e-06 0.0005 
2461 1 -0.00957909 -0.00929906 0.00112221 6.18303e-06 1.82928e-05 8.13987e-06 4.15989e-08 -1.44621e-07 1.21205e-09 -1.4347e-07 -4.21086e-07 2.67021e-06 0.0005 
106 1 -0.00621712 -0.009356 0.001254 -0.00011949 2.50628e-05 -7.80283e-05 -1.25499e-07 -1.2373e-07 4.69877e-08 -2.07195e-07 -5.45394e-08 2.72294e-06 0.0005 
1750 1 -0.00396484 -0.00923804 0.000992414 -6.46902e-05 0.000245819 0.000100623 -5.59229e-08 5.89191e-07 2.88993e-08 3.96249e-08 -1.46585e-08 2.64817e-06 0.0005 
243 1 -0.00695551 -0.00838296 0.0012103 -0.000244769 1.16145e-05 -4.96727e-05 -2.8419e-07 -5.60575e-07 -2.30095e-07 -4.21907e-07 3.63485e-07 3.41195e-06 0.0005 
948 1 -0.00518245 -0.00801327 0.000782199 -0.000289311 0.000122574 -0.000372782 -5.12589e-07 -8.47261e-08 1.6013e-07 -4.65481e-08 3.90831e-07 2.07445e-06 0.0005 
793 1 -0.00402972 -0.00821507 0.000713048 -0.000221987 0.000137773 -0.000259502 8.25771e-08 6.44564e-07 4.7615e-07 -1.09682e-07 2.75515e-07 1.55303e-06 0.0005 
1694 1 -0.00169825 -0.00852811 0.00123457 -0.000375017 0.000311142 0.00052072 -7.41899e-07 -8.53311e-07 2.63987e-07 -1.86321e-07 -4.73312e-07 2.7318e-06 0.0005 
842 1 -0.0100245 -0.00764463 0.0010623 1.63139e-05 1.03194e-05 6.89993e-06 -7.29207e-08 4.22478e-07 -5.1992e-08 1.29508e-08 -3.2587e-07 2.31441e-06 0.0005 
239 1 -0.00900548 -0.00742024 0.00114284 5.86007e-05 -0.000213638 0.000203682 -3.03797e-07 2.73893e-08 -2.42225e-08 -5.78911e-07 -1.98707e-07 2.65939e-06 0.0005 
13 1 -0.00304414 -0.00786585 0.00119541 -0.000244631 4.84665e-05 -4.97553e-05 3.30365e-07 7.51617e-07 5.69029e-07 -5.41952e-07 1.60693e-07 2.88915e-06 0.0005 
1059 1 -0.00718331 -0.0067374 0.00118526 -0.000149527 -4.10471e-05 -0.000144504 -2.41871e-07 3.13018e-09 8.98531e-08 -3.92509e-07 1.48084e-07 2.80348e-06 0.0005 
830 1 -0.00489347 -0.00645656 0.00104145 -0.000143513 0.000256603 -4.14687e-05 -6.39427e-07 -2.51938e-07 -1.48175e-07 1.18007e-08 3.67016e-07 2.28558e-06 0.0005 
515 1 -0.0031108 -0.00650894 0.000807995 -0.000235953 -2.16408e-05 -1.03948e-05 -4.58309e-07 2.23218e-07 3.45725e-08 -8.42894e-07 -7.09199e-08 1.7397e-06 0.0005 
2336 1 -0.0016758 -0.00691265 0.000534994 -0.000172638 6.78262e-05 1.21659e-05 1.21529e-07 3.03875e-07 2.94942e-07 -5.25553e-07 -3.22859e-07 1.15461e-06 0.0005 
2421 1 -0.000544398 -0.00705868 0.000960514 -0.000119753 8.7246e-05 -5.79168e-06 -9.8082e-08 4.0873e-07 -9.95296e-08 -4.09975e-09 -4.81203e-07 2.64501e-06 0.0005 
1645 1 -0.00626055 -0.00561168 0.00114067 -0.000347776 -0.000159218 7.21844e-05 -4.25723e-07 1.00153e-07 4.20713e-08 3.30056e-08 7.63947e-08 2.77925e-06 0.0005 
100 1 -0.004012 -0.00567919 0.00124273 -0.000413687 0.000154465 -7.97819e-05 -6.00145e-07 5.6648e-07 5.10178e-07 -2.10788e-07 3.07593e-07 2.66326e-06 0.0005 
2208 1 -0.00153019 -0.00569176 0.00105837 -0.000137618 0.000119188 -4.87553e-05 -3.12228e-07 5.44565e-07 1.46521e-07 -6.07726e-07 -1.67114e-07 2.70003e-06 0.0005 
1899 1 -0.0103893 -0.00548597 0.00125506 0.000138925 -3.92101e-05 6.28732e-05 -1.21927e-07 2.8106e-07 1.88672e-07 6.322e-07 4.31929e-08 3.07359e-06 0.0005 
220 1 -0.00939669 -0.005524 0.00114243 0.000129656 -6.13506e-05 8.49687e-05 -8.57289e-08 4.97532e-07 6.4803e-08 3.06516e-07 -5.92666e-08 2.79623e-06 0.0005 
1211 1 -0.00784654 -0.00549246 0.00102024 -4.41532e-05 -4.02082e-06 1.81396e-05 -2.11593e-07 3.54349e-07 -3.52381e-07 -2.1452e-07 -4.35876e-08 2.23014e-06 0.0005 
565 1 -0.00328067 -0.00481811 0.00124236 0.000626339 -6.38326e-05 -0.000189266 -1.05115e-06 2.68934e-07 1.19639e-06 -8.46163e-07 -3.26842e-08 2.63599e-06 0.0005 
2300 1 -0.0118159 -0.00397845 0.000858659 0.000153561 -8.63019e-05 -0.000281778 -9.63651e-08 7.10845e-07 5.29109e-07 1.7136e-07 2.55723e-07 2.29883e-06 0.0005 
1986 1 -0.006466 -0.00463511 0.00107893 -0.000162998 -0.000159724 0.000121255 -2.46279e-07 1.16333e-07 1.77457e-07 -8.35107e-10 7.29168e-08 2.54367e-06 0.0005 
1236 1 -0.00463207 -0.00465384 0.00121734 -0.000879408 -0.00163123 -0.00087208 -1.83757e-07 -1.39764e-07 1.03377e-07 -3.85813e-07 1.90478e-07 2.56484e-06 0.0005 
483 1 -0.00251297 -0.00417765 0.00125293 0.000280628 0.000211946 -0.00022019 -8.59833e-07 4.61937e-08 5.95889e-07 -1.20848e-06 -8.81869e-08 3.3681e-06 0.0005 
696 1 -0.0068671 -0.00370373 0.00076032 0.000132794 0.000531594 -0.000184164 1.51275e-07 3.02584e-07 -8.23886e-08 7.04617e-08 6.9879e-08 1.64049e-06 0.0005 
704 1 -0.00148108 -0.00353837 0.00091719 -0.000309249 2.44504e-05 4.38665e-05 -2.17475e-07 -3.38668e-07 7.49343e-07 -4.86943e-07 3.70032e-07 2.10566e-06 0.0005 
2160 1 -8.25253e-05 -0.00350905 0.000895616 -0.000328445 0.000201941 -0.000425285 -1.08497e-07 -5.88226e-07 9.30217e-07 -6.97895e-09 1.71653e-07 1.93789e-06 0.0005 
532 1 -0.0107895 -0.00315173 0.000983537 3.23366e-05 5.59041e-05 -1.82833e-05 -1.58821e-07 5.29539e-07 5.23512e-08 1.05612e-07 5.22961e-08 2.47171e-06 0.0005 
1201 1 -0.00779586 -0.00275784 0.00116865 -8.36269e-05 4.69693e-05 -5.47746e-05 3.39308e-07 1.85577e-07 -1.30012e-08 1.17207e-08 9.55795e-08 3.07755e-06 0.0005 
2224 1 -0.00855079 -0.0018023 0.00105231 8.62722e-05 6.26844e-05 -4.27241e-05 6.68615e-08 1.9058e-07 -5.75204e-08 -8.16237e-08 7.3894e-08 2.04963e-06 0.0005 
1596 1 -0.00696112 -0.00181727 0.00108898 0.000145233 5.95343e-05 -0.000125212 -2.92377e-07 -2.97514e-08 -2.35483e-07 -6.55486e-09 1.67837e-07 2.08006e-06 0.0005 
2459 1 -0.00350805 -0.00226686 0.00115698 -0.000981909 0.000525535 0.000203854 -4.50474e-08 4.97401e-07 -9.58951e-07 -5.39726e-07 1.31006e-07 2.34432e-06 0.0005 
78 1 -0.0116473 -0.00114534 0.00077594 2.97818e-05 -2.79434e-05 8.84222e-06 1.93484e-07 8.3552e-08 3.14803e-07 2.31941e-07 -1.37809e-07 2.12002e-06 0.0005 
367 1 -0.0100498 -0.00115914 0.00121872 0.000214784 7.19946e-05 8.0285e-05 1.2997e-07 2.90835e-07 4.51114e-08 1.23761e-07 -2.46932e-07 2.98611e-06 0.0005 
5 1 -0.00506762 -0.00117837 0.00098251 0.00010905 4.60791e-05 -0.000165766 -6.7977e-07 -2.03476e-07 9.42369e-08 -1.68857e-07 -1.59718e-07 2.10158e-06 0.0005 
1357 1 -0.00114897 -0.00102432 0.000842693 -0.000504736 -0.000355683 0.000175625 -7.70182e-08 1.47884e-07 2.00193e-07 -6.38483e-07 -1.67109e-07 2.22147e-06 0.0005 
2095 1 -0.0104768 -0.000404156 0.000630572 -6.52652e-05 0.000119258 -0.000524649 -5.26072e-07 3.30707e-07 -1.00397e-06 2.10327e-07 -1.07814e-07 1.5063e-06 0.0005 
42 1 -0.00419426 -0.0007067 0.000863041 9.46418e-05 0.000106134 -0.000137114 -1.39214e-06 3.72007e-07 -4.77451e-07 -3.81382e-07 -4.30736e-07 1.87316e-06 0.0005 
548 1 -0.00252071 -0.000563176 0.00113649 -0.000767551 -0.00071409 0.000194547 -5.44701e-07 -3.96767e-07 5.47839e-07 -7.19699e-07 -2.27627e-07 2.85107e-06 0.0005 
805 1 -0.00293935 -0.0130203 0.00190444 0.000421407 0.000287353 -0.000703331 -2.16798e-07 4.60697e-07 3.12896e-07 -4.99038e-08 1.06449e-07 4.12777e-06 0.0005 
643 1 -0.00198544 -0.0132019 0.00161464 -8.24438e-05 -0.000112739 -4.73032e-05 2.46604e-07 2.06508e-07 5.43473e-07 1.05882e-07 2.28243e-07 3.83818e-06 0.0005 
1951 1 -0.0009085 -0.0133184 0.00130752 1.17134e-05 -0.000430284 9.40997e-05 -4.66951e-07 2.22461e-07 5.5349e-07 1.74827e-07 2.05952e-07 3.34797e-06 0.0005 
2416 1 -0.0001848 -0.013348 0.0019968 6.18187e-05 -0.000115218 0.000144073 -5.59982e-07 2.26285e-07 3.3184e-07 4.41456e-08 1.57665e-08 3.96834e-06 0.0005 
2017 1 -0.00570497 -0.0119964 0.00125896 0.000378625 -0.00233596 -0.000968091 -6.13825e-07 -1.86034e-08 6.10431e-07 -3.26156e-07 1.39133e-07 3.21969e-06 0.0005 
527 1 -0.0043574 -0.0126188 0.00168172 7.96479e-06 -0.000213355 -0.000270479 9.18174e-07 -1.47579e-06 -1.88537e-07 -1.47643e-07 1.61829e-07 3.72549e-06 0.0005 
2327 1 -0.00336343 -0.0120697 0.00146841 -0.000237776 -2.84042e-05 -0.000239529 3.10445e-08 1.71436e-06 -1.18452e-06 -4.59029e-08 2.20191e-07 3.41343e-06 0.0005 
886 1 -0.00238395 -0.0122669 0.00143029 -0.000162592 -0.000278445 2.87628e-05 -9.92628e-08 -2.03548e-07 -5.39951e-07 5.29581e-08 2.63655e-07 3.21252e-06 0.0005 
848 1 -0.00141696 -0.0124585 0.00126321 0.000125838 -0.000113211 0.000539744 8.65927e-08 5.48186e-07 3.49918e-07 1.60902e-07 3.60641e-07 3.29617e-06 0.0005 
125 1 -0.000669184 -0.0119366 0.00167333 0.000506307 -4.94351e-05 -9.92103e-05 -7.31112e-08 4.8993e-07 -2.75798e-07 -1.69337e-08 1.12853e-07 3.59723e-06 0.0005 
2456 1 -0.00682007 -0.0114766 0.00139541 0.000242052 0.00012608 6.76631e-05 -7.86247e-07 -1.4247e-07 7.8299e-07 -3.54207e-07 1.37111e-07 3.28696e-06 0.0005 
461 1 -0.00540753 -0.01127 0.0018908 0.000388709 -0.000355412 0.000439179 -1.25181e-06 3.37897e-06 1.88068e-07 -2.08926e-07 7.28547e-08 4.0249e-06 0.0005 
2263 1 -0.00448134 -0.0116462 0.00187812 0.0004551 -0.000326186 -0.000699488 1.16632e-06 5.2996e-07 1.32551e-06 -1.01408e-07 1.31054e-07 3.94894e-06 0.0005 