LIGGGHTS (Version LIGGGHTS-PUBLIC 3.8.0, compiled 2020-06-10-17:38:37 by eadaymo, git commit ce1931e377a2945e3fa25dae0eebc1f697009a32)
echo            both
log             ../DEM/log.liggghts
