# Probe 0 (0.05 0.05 -0.5)
# Probe 1 (0.05 0.05 1.5)
#       Probe             0             1
#        Time
        0.005        102247        100007
         0.01        102096        100000
        0.015        102081        100000
         0.02        102080        100000
        0.025        102081        100000
         0.03        102079        100000
        0.035        102077        100000
         0.04        102077        100000
        0.045        102078        100000
         0.05        102077        100000
        0.055        102077        100000
         0.06        102077        100000
        0.065        102078        100000
         0.07        102078        100000
        0.075        102077        100000
         0.08        102077        100000
        0.085        102078        100000
         0.09        102077        100000
        0.095        102077        100000
          0.1        102077        100000
        0.105        102077        100000
         0.11        102077        100000
        0.115        102077        100000
         0.12        102077        100000
        0.125        102077        100000
         0.13        102077        100000
        0.135        102077        100000
         0.14        102077        100000
        0.145        102077        100000
         0.15        102077        100000
        0.155        102077        100000
         0.16        102077        100000
        0.165        102077        100000
         0.17        102077        100000
        0.175        102077        100000
         0.18        102077        100000
        0.185        102077        100000
         0.19        102077        100000
        0.195        102077        100000
          0.2        102077        100000
        0.205        102077        100000
         0.21        102077        100000
        0.215        102077        100000
         0.22        102077        100000
        0.225        102077        100000
         0.23        102077        100000
        0.235        102077        100000
         0.24        102077        100000
        0.245        102077        100000
         0.25        102077        100000
        0.255        102077        100000
         0.26        102077        100000
        0.265        102077        100000
         0.27        102077        100000
        0.275        102077        100000
         0.28        102077        100000
        0.285        102077        100000
         0.29        102077        100000
        0.295        102077        100000
          0.3        102077        100000
        0.305        102077        100000
         0.31        102077        100000
        0.315        102077        100000
         0.32        102077        100000
        0.325        102077        100000
         0.33        102077        100000
        0.335        102077        100000
         0.34        102077        100000
        0.345        102077        100000
         0.35        102077        100000
        0.355        102077        100000
         0.36        102077        100000
        0.365        102077        100000
         0.37        102077        100000
        0.375        102077        100000
         0.38        102077        100000
        0.385        102077        100000
         0.39        102077        100000
        0.395        102077        100000
          0.4        102077        100000
        0.405        102077        100000
         0.41        102077        100000
        0.415        102077        100000
         0.42        102077        100000
        0.425        102077        100000
         0.43        102077        100000
        0.435        102077        100000
         0.44        102077        100000
        0.445        102077        100000
         0.45        102077        100000
        0.455        102077        100000
         0.46        102077        100000
        0.465        102077        100000
         0.47        102077        100000
        0.475        102077        100000
         0.48        102077        100000
        0.485        102077        100000
         0.49        102077        100000
        0.495        102077        100000
          0.5        102077        100000
        0.505        102077        100000
         0.51        102077        100000
        0.515        102077        100000
         0.52        102077        100000
        0.525        102077        100000
         0.53        102077        100000
        0.535        102077        100000
         0.54        102077        100000
        0.545        102077        100000
         0.55        102077        100000
        0.555        102077        100000
         0.56        102077        100000
        0.565        102077        100000
         0.57        102077        100000
        0.575        102077        100000
         0.58        102077        100000
        0.585        102077        100000
         0.59        102077        100000
        0.595        102077        100000
          0.6        102077        100000
        0.605        102077        100000
         0.61        102077        100000
        0.615        102077        100000
         0.62        102077        100000
        0.625        102077        100000
         0.63        102077        100000
        0.635        102077        100000
         0.64        102077        100000
        0.645        102077        100000
         0.65        102077        100000
        0.655        102077        100000
         0.66        102077        100000
        0.665        102077        100000
         0.67        102077        100000
        0.675        102077        100000
         0.68        102077        100000
        0.685        102077        100000
         0.69        102077        100000
        0.695        102077        100000
          0.7        102077        100000
        0.705        102077        100000
         0.71        102077        100000
        0.715        102077        100000
         0.72        102077        100000
        0.725        102077        100000
         0.73        102077        100000
        0.735        102077        100000
         0.74        102077        100000
        0.745        102077        100000
         0.75        102077        100000
        0.755        102077        100000
         0.76        102077        100000
        0.765        102077        100000
         0.77        102077        100000
        0.775        102077        100000
         0.78        102077        100000
        0.785        102077        100000
         0.79        102077        100000
        0.795        102077        100000
          0.8        102077        100000
        0.805        102077        100000
         0.81        102077        100000
        0.815        102077        100000
         0.82        102077        100000
        0.825        102077        100000
         0.83        102077        100000
        0.835        102077        100000
         0.84        102077        100000
        0.845        102077        100000
         0.85        102077        100000
        0.855        102077        100000
         0.86        102077        100000
        0.865        102077        100000
         0.87        102077        100000
        0.875        102077        100000
         0.88        102077        100000
        0.885        102077        100000
         0.89        102077        100000
        0.895        102077        100000
          0.9        102077        100000
        0.905        102077        100000
         0.91        102077        100000
        0.915        102077        100000
         0.92        102077        100000
        0.925        102077        100000
         0.93        102077        100000
        0.935        102077        100000
         0.94        102077        100000
        0.945        102077        100000
         0.95        102077        100000
        0.955        102077        100000
         0.96        102077        100000
        0.965        102077        100000
         0.97        102077        100000
        0.975        102077        100000
         0.98        102077        100000
        0.985        102077        100000
         0.99        102077        100000
        0.995        102077        100000
            1        102077        100000
        1.005        102077        100000
         1.01        102077        100000
        1.015        102077        100000
         1.02        102077        100000
        1.025        102077        100000
         1.03        102077        100000
        1.035        102077        100000
         1.04        102077        100000
        1.045        102077        100000
         1.05        102077        100000
        1.055        102077        100000
         1.06        102077        100000
        1.065        102077        100000
         1.07        102077        100000
        1.075        102077        100000
         1.08        102077        100000
        1.085        102077        100000
         1.09        102077        100000
        1.095        102077        100000
          1.1        102077        100000
        1.105        102077        100000
         1.11        102077        100000
        1.115        102077        100000
         1.12        102077        100000
        1.125        102077        100000
         1.13        102077        100000
        1.135        102077        100000
         1.14        102077        100000
        1.145        102077        100000
         1.15        102077        100000
        1.155        102077        100000
         1.16        102077        100000
        1.165        102077        100000
         1.17        102077        100000
        1.175        102077        100000
         1.18        102077        100000
        1.185        102077        100000
         1.19        102077        100000
        1.195        102077        100000
          1.2        102077        100000
        1.205        102077        100000
         1.21        102077        100000
        1.215        102077        100000
         1.22        102077        100000
        1.225        102077        100000
         1.23        102077        100000
        1.235        102077        100000
         1.24        102077        100000
        1.245        102077        100000
         1.25        102077        100000
        1.255        102077        100000
         1.26        102077        100000
        1.265        102077        100000
         1.27        102077        100000
        1.275        102077        100000
         1.28        102077        100000
        1.285        102077        100000
         1.29        102077        100000
        1.295        102077        100000
          1.3        102077        100000
        1.305        102077        100000
         1.31        102077        100000
        1.315        102077        100000
         1.32        102077        100000
        1.325        102077        100000
         1.33        102077        100000
        1.335        102077        100000
         1.34        102077        100000
        1.345        102077        100000
         1.35        102077        100000
        1.355        102077        100000
         1.36        102077        100000
        1.365        102077        100000
         1.37        102077        100000
        1.375        102077        100000
         1.38        102077        100000
        1.385        102077        100000
         1.39        102077        100000
        1.395        102077        100000
          1.4        102077        100000
        1.405        102077        100000
         1.41        102077        100000
        1.415        102077        100000
         1.42        102077        100000
        1.425        102077        100000
         1.43        102077        100000
        1.435        102077        100000
         1.44        102077        100000
        1.445        102077        100000
         1.45        102077        100000
        1.455        102077        100000
         1.46        102077        100000
        1.465        102077        100000
         1.47        102077        100000
        1.475        102077        100000
         1.48        102077        100000
        1.485        102077        100000
         1.49        102077        100000
        1.495        102077        100000
          1.5        102077        100000
