# Probe 0 (0.05 0.05 -0.5)
# Probe 1 (0.05 0.05 1.5)
#       Probe             0             1
#        Time
        0.005        102256        100007
         0.01        102097        100000
        0.015        102082        100000
         0.02        102081        100000
        0.025        102082        100000
         0.03        102080        100000
        0.035        102078        100000
         0.04        102078        100000
        0.045        102078        100000
         0.05        102078        100000
        0.055        102078        100000
         0.06        102078        100000
        0.065        102079        100000
         0.07        102079        100000
        0.075        102078        100000
         0.08        102078        100000
        0.085        102078        100000
         0.09        102078        100000
        0.095        102078        100000
          0.1        102078        100000
        0.105        102078        100000
         0.11        102078        100000
        0.115        102078        100000
         0.12        102078        100000
        0.125        102078        100000
         0.13        102078        100000
        0.135        102078        100000
         0.14        102078        100000
        0.145        102078        100000
         0.15        102078        100000
        0.155        102078        100000
         0.16        102078        100000
        0.165        102078        100000
         0.17        102078        100000
        0.175        102078        100000
         0.18        102078        100000
        0.185        102078        100000
         0.19        102078        100000
        0.195        102078        100000
          0.2        102078        100000
        0.205        102078        100000
         0.21        102078        100000
        0.215        102078        100000
         0.22        102078        100000
        0.225        102078        100000
         0.23        102078        100000
        0.235        102078        100000
         0.24        102078        100000
        0.245        102078        100000
         0.25        102078        100000
        0.255        102078        100000
         0.26        102078        100000
        0.265        102078        100000
         0.27        102078        100000
        0.275        102078        100000
         0.28        102078        100000
        0.285        102078        100000
         0.29        102078        100000
        0.295        102078        100000
          0.3        102078        100000
        0.305        102078        100000
         0.31        102078        100000
        0.315        102078        100000
         0.32        102078        100000
        0.325        102078        100000
         0.33        102078        100000
        0.335        102078        100000
         0.34        102078        100000
        0.345        102078        100000
         0.35        102078        100000
        0.355        102078        100000
         0.36        102078        100000
        0.365        102078        100000
         0.37        102078        100000
        0.375        102078        100000
         0.38        102078        100000
        0.385        102078        100000
         0.39        102078        100000
        0.395        102078        100000
          0.4        102078        100000
        0.405        102078        100000
         0.41        102078        100000
        0.415        102078        100000
         0.42        102078        100000
        0.425        102078        100000
         0.43        102078        100000
        0.435        102078        100000
         0.44        102078        100000
        0.445        102078        100000
         0.45        102078        100000
        0.455        102078        100000
         0.46        102078        100000
        0.465        102078        100000
         0.47        102078        100000
        0.475        102078        100000
         0.48        102078        100000
        0.485        102078        100000
         0.49        102078        100000
        0.495        102078        100000
          0.5        102078        100000
        0.505        102078        100000
         0.51        102078        100000
        0.515        102078        100000
         0.52        102078        100000
        0.525        102078        100000
         0.53        102078        100000
        0.535        102078        100000
         0.54        102078        100000
        0.545        102078        100000
         0.55        102078        100000
        0.555        102078        100000
         0.56        102078        100000
        0.565        102078        100000
         0.57        102078        100000
        0.575        102078        100000
         0.58        102078        100000
        0.585        102078        100000
         0.59        102078        100000
        0.595        102078        100000
          0.6        102078        100000
        0.605        102078        100000
         0.61        102078        100000
        0.615        102078        100000
         0.62        102078        100000
        0.625        102078        100000
         0.63        102078        100000
        0.635        102078        100000
         0.64        102078        100000
        0.645        102078        100000
         0.65        102078        100000
        0.655        102078        100000
         0.66        102078        100000
        0.665        102078        100000
         0.67        102078        100000
        0.675        102078        100000
         0.68        102078        100000
        0.685        102078        100000
         0.69        102078        100000
        0.695        102078        100000
          0.7        102078        100000
        0.705        102078        100000
         0.71        102078        100000
        0.715        102078        100000
         0.72        102078        100000
        0.725        102078        100000
         0.73        102078        100000
        0.735        102078        100000
         0.74        102078        100000
        0.745        102078        100000
         0.75        102078        100000
        0.755        102078        100000
         0.76        102078        100000
        0.765        102078        100000
         0.77        102078        100000
        0.775        102078        100000
         0.78        102078        100000
        0.785        102078        100000
         0.79        102078        100000
        0.795        102078        100000
          0.8        102078        100000
        0.805        102078        100000
         0.81        102078        100000
        0.815        102078        100000
         0.82        102078        100000
        0.825        102078        100000
         0.83        102078        100000
        0.835        102078        100000
         0.84        102078        100000
        0.845        102078        100000
         0.85        102078        100000
        0.855        102078        100000
         0.86        102078        100000
        0.865        102078        100000
         0.87        102078        100000
        0.875        102078        100000
         0.88        102078        100000
        0.885        102078        100000
         0.89        102078        100000
        0.895        102078        100000
          0.9        102078        100000
        0.905        102078        100000
         0.91        102078        100000
        0.915        102078        100000
         0.92        102078        100000
        0.925        102078        100000
         0.93        102078        100000
        0.935        102078        100000
         0.94        102078        100000
        0.945        102078        100000
         0.95        102078        100000
        0.955        102078        100000
         0.96        102078        100000
        0.965        102078        100000
         0.97        102078        100000
        0.975        102078        100000
         0.98        102078        100000
        0.985        102078        100000
         0.99        102078        100000
        0.995        102078        100000
            1        102078        100000
        1.005        102078        100000
         1.01        102078        100000
        1.015        102078        100000
         1.02        102078        100000
        1.025        102078        100000
         1.03        102078        100000
        1.035        102078        100000
         1.04        102078        100000
        1.045        102078        100000
         1.05        102078        100000
        1.055        102078        100000
         1.06        102078        100000
        1.065        102078        100000
         1.07        102078        100000
        1.075        102078        100000
         1.08        102078        100000
        1.085        102078        100000
         1.09        102078        100000
        1.095        102078        100000
          1.1        102078        100000
        1.105        102078        100000
         1.11        102078        100000
        1.115        102078        100000
         1.12        102078        100000
        1.125        102078        100000
         1.13        102078        100000
        1.135        102078        100000
         1.14        102078        100000
        1.145        102078        100000
         1.15        102078        100000
        1.155        102078        100000
         1.16        102078        100000
        1.165        102078        100000
         1.17        102078        100000
        1.175        102078        100000
         1.18        102078        100000
        1.185        102078        100000
         1.19        102078        100000
        1.195        102078        100000
          1.2        102078        100000
        1.205        102078        100000
         1.21        102078        100000
        1.215        102078        100000
         1.22        102078        100000
        1.225        102078        100000
         1.23        102078        100000
        1.235        102078        100000
         1.24        102078        100000
        1.245        102078        100000
         1.25        102078        100000
        1.255        102078        100000
         1.26        102078        100000
        1.265        102078        100000
         1.27        102078        100000
        1.275        102078        100000
         1.28        102078        100000
        1.285        102078        100000
         1.29        102078        100000
        1.295        102078        100000
          1.3        102078        100000
        1.305        102078        100000
         1.31        102078        100000
        1.315        102078        100000
         1.32        102078        100000
        1.325        102078        100000
         1.33        102078        100000
        1.335        102078        100000
         1.34        102078        100000
        1.345        102078        100000
         1.35        102078        100000
        1.355        102078        100000
         1.36        102078        100000
        1.365        102078        100000
         1.37        102078        100000
        1.375        102078        100000
         1.38        102078        100000
        1.385        102078        100000
         1.39        102078        100000
        1.395        102078        100000
          1.4        102078        100000
        1.405        102078        100000
         1.41        102078        100000
        1.415        102078        100000
         1.42        102078        100000
        1.425        102078        100000
         1.43        102078        100000
        1.435        102078        100000
         1.44        102078        100000
        1.445        102078        100000
         1.45        102078        100000
        1.455        102078        100000
         1.46        102078        100000
        1.465        102078        100000
         1.47        102078        100000
        1.475        102078        100000
         1.48        102078        100000
        1.485        102078        100000
         1.49        102078        100000
        1.495        102078        100000
          1.5        102078        100000
