# Probe 0 (0.05 0.05 -0.5)
# Probe 1 (0.05 0.05 1.5)
#       Probe             0             1
#        Time
        0.005           263           263
         0.01           263           263
        0.015           263           263
         0.02           263           263
        0.025           263           263
         0.03           263           263
        0.035           263           263
         0.04           263           263
        0.045           263           263
         0.05           263           263
        0.055           263           263
         0.06           263           263
        0.065           263           263
         0.07           263           263
        0.075           263           263
         0.08           263           263
        0.085           263           263
         0.09           263           263
        0.095           263           263
          0.1           263           263
        0.105           263           263
         0.11           263           263
        0.115           263           263
         0.12           263           263
        0.125           263           263
         0.13           263       263.001
        0.135           263       263.001
         0.14           263       263.001
        0.145           263       263.001
         0.15           263       263.002
        0.155           263       263.002
         0.16           263       263.003
        0.165           263       263.004
         0.17           263       263.005
        0.175           263       263.006
         0.18           263       263.007
        0.185           263       263.009
         0.19           263       263.011
        0.195           263       263.014
          0.2           263       263.016
        0.205           263        263.02
         0.21           263       263.024
        0.215           263       263.028
         0.22           263       263.034
        0.225           263        263.04
         0.23           263       263.048
        0.235           263       263.056
         0.24           263       263.066
        0.245           263       263.077
         0.25           263        263.09
        0.255           263       263.105
         0.26           263       263.121
        0.265           263        263.14
         0.27           263       263.161
        0.275           263       263.186
         0.28           263       263.213
        0.285           263       263.243
         0.29           263       263.277
        0.295           263       263.315
          0.3           263       263.357
        0.305           263       263.404
         0.31           263       263.455
        0.315           263       263.512
         0.32           263       263.575
        0.325           263       263.643
         0.33           263       263.718
        0.335           263         263.8
         0.34           263       263.889
        0.345           263       263.986
         0.35           263       264.091
        0.355           263       264.204
         0.36           263       264.326
        0.365           263       264.457
         0.37           263       264.598
        0.375           263       264.749
         0.38           263        264.91
        0.385           263       265.081
         0.39           263       265.264
        0.395           263       265.458
          0.4           263       265.663
        0.405           263        265.88
         0.41           263        266.11
        0.415           263       266.351
         0.42           263       266.605
        0.425           263       266.872
         0.43           263       267.151
        0.435           263       267.444
         0.44           263        267.75
        0.445           263       268.069
         0.45           263       268.402
        0.455           263       268.748
         0.46           263       269.108
        0.465           263       269.482
         0.47           263       269.869
        0.475           263        270.27
         0.48           263       270.686
        0.485           263       271.114
         0.49           263       271.557
        0.495           263       272.013
          0.5           263       272.483
        0.505           263       272.967
         0.51           263       273.464
        0.515           263       273.975
         0.52           263         274.5
        0.525           263       275.039
         0.53           263       275.592
        0.535           263       276.159
         0.54           263        276.74
        0.545           263       277.335
         0.55           263       277.944
        0.555           263       278.568
         0.56           263       279.207
        0.565           263       279.859
         0.57           263       280.527
        0.575           263       281.208
         0.58           263       281.905
        0.585           263       282.616
         0.59           263       283.342
        0.595           263       284.082
          0.6           263       284.838
        0.605           263       285.608
         0.61           263       286.393
        0.615           263       287.193
         0.62           263       288.008
        0.625           263       288.837
         0.63           263       289.694
        0.635           263       290.578
         0.64           263       291.487
        0.645           263       292.418
         0.65           263        293.37
        0.655           263        294.34
         0.66           263       295.327
        0.665           263        296.33
         0.67           263       297.347
        0.675           263       298.377
         0.68           263        299.42
        0.685           263       300.474
         0.69           263       301.538
        0.695           263       302.612
          0.7           263       303.696
        0.705           263       304.788
         0.71           263       305.888
        0.715           263       306.994
         0.72           263       308.107
        0.725           263       309.223
         0.73           263       310.343
        0.735           263       311.467
         0.74           263       312.595
        0.745           263       313.726
         0.75           263       314.862
        0.755           263       316.003
         0.76           263       317.148
        0.765           263       318.299
         0.77           263       319.455
        0.775           263       320.617
         0.78           263       321.785
        0.785           263       322.959
         0.79           263       324.138
        0.795           263       325.322
          0.8           263       326.512
        0.805           263       327.706
         0.81           263       328.903
        0.815           263       330.104
         0.82           263       331.307
        0.825           263       332.511
         0.83           263       333.716
        0.835           263       334.921
         0.84           263       336.124
        0.845           263       337.324
         0.85           263       338.521
        0.855           263       339.714
         0.86           263       340.901
        0.865           263       342.081
         0.87           263       343.254
        0.875           263       344.419
         0.88           263       345.574
        0.885           263       346.718
         0.89           263       347.852
        0.895           263       348.972
          0.9           263        350.08
        0.905           263       351.173
         0.91           263       352.252
        0.915           263       353.314
         0.92           263        354.36
        0.925           263       355.388
         0.93           263       356.398
        0.935           263       357.389
         0.94           263        358.36
        0.945           263       359.312
         0.95           263       360.242
        0.955           263       361.152
         0.96           263        362.04
        0.965           263       362.907
         0.97           263       363.751
        0.975           263       364.572
         0.98           263       365.372
        0.985           263       366.149
         0.99           263       366.904
        0.995           263       367.637
            1           263       368.349
        1.005           263       369.039
         1.01           263       369.707
        1.015           263       370.353
         1.02           263       370.978
        1.025           263        371.58
         1.03           263        372.16
        1.035           263       372.719
         1.04           263       373.256
        1.045           263       373.771
         1.05           263       374.266
        1.055           263        374.74
         1.06           263       375.194
        1.065           263       375.628
         1.07           263       376.043
        1.075           263       376.439
         1.08           263       376.817
        1.085           263       377.177
         1.09           263        377.52
        1.095           263       377.846
          1.1           263       378.156
        1.105           263       378.451
         1.11           263       378.731
        1.115           263       378.997
         1.12           263       379.249
        1.125           263       379.488
         1.13           263       379.714
        1.135           263       379.929
         1.14           263       380.131
        1.145           263       380.323
         1.15           263       380.504
        1.155           263       380.676
         1.16           263       380.837
        1.165           263        380.99
         1.17           263       381.134
        1.175           263       381.269
         1.18           263       381.397
        1.185           263       381.518
         1.19           263       381.631
        1.195           263       381.738
          1.2           263       381.838
        1.205           263       381.933
         1.21           263       382.022
        1.215           263       382.105
         1.22           263       382.183
        1.225           263       382.257
         1.23           263       382.326
        1.235           263        382.39
         1.24           263       382.451
        1.245           263       382.508
         1.25           263       382.561
        1.255           263        382.61
         1.26           263       382.657
        1.265           263         382.7
         1.27           263       382.741
        1.275           263       382.779
         1.28           263       382.814
        1.285           263       382.847
         1.29           263       382.877
        1.295           263       382.906
          1.3           263       382.932
        1.305           263       382.957
         1.31           263       382.979
        1.315           263           383
         1.32           263        383.02
        1.325           263       383.038
         1.33           263       383.054
        1.335           263       383.069
         1.34           263       383.083
        1.345           263       383.096
         1.35           263       383.108
        1.355           263       383.119
         1.36           263       383.128
        1.365           263       383.137
         1.37           263       383.145
        1.375           263       383.152
         1.38           263       383.159
        1.385           263       383.164
         1.39           263        383.17
        1.395           263       383.174
          1.4           263       383.178
        1.405           263       383.181
         1.41           263       383.184
        1.415           263       383.187
         1.42           263       383.189
        1.425           263        383.19
         1.43           263       383.192
        1.435           263       383.193
         1.44           263       383.193
        1.445           263       383.194
         1.45           263       383.194
        1.455           263       383.194
         1.46           263       383.194
        1.465           263       383.193
         1.47           263       383.193
        1.475           263       383.192
         1.48           263       383.191
        1.485           263        383.19
         1.49           263       383.189
        1.495           263       383.188
          1.5           263       383.187
