# Probe 0 (0.05 0.05 -0.5)
# Probe 1 (0.05 0.05 1.5)
#       Probe             0             1
#        Time
        0.005           263           263
         0.01           263           263
        0.015           263           263
         0.02           263           263
        0.025           263           263
         0.03           263           263
        0.035           263           263
         0.04           263           263
        0.045           263           263
         0.05           263           263
        0.055           263           263
         0.06           263           263
        0.065           263           263
         0.07           263           263
        0.075           263           263
         0.08           263           263
        0.085           263           263
         0.09           263           263
        0.095           263           263
          0.1           263           263
        0.105           263           263
         0.11           263           263
        0.115           263           263
         0.12           263           263
        0.125           263           263
         0.13           263       263.001
        0.135           263       263.001
         0.14           263       263.001
        0.145           263       263.001
         0.15           263       263.002
        0.155           263       263.002
         0.16           263       263.003
        0.165           263       263.004
         0.17           263       263.005
        0.175           263       263.006
         0.18           263       263.007
        0.185           263       263.009
         0.19           263       263.011
        0.195           263       263.013
          0.2           263       263.016
        0.205           263        263.02
         0.21           263       263.024
        0.215           263       263.029
         0.22           263       263.034
        0.225           263       263.041
         0.23           263       263.048
        0.235           263       263.057
         0.24           263       263.067
        0.245           263       263.078
         0.25           263       263.092
        0.255           263       263.107
         0.26           263       263.125
        0.265           263       263.145
         0.27           263       263.167
        0.275           263       263.193
         0.28           263       263.221
        0.285           263       263.254
         0.29           263        263.29
        0.295           263       263.331
          0.3           263       263.377
        0.305           263       263.427
         0.31           263       263.483
        0.315           263       263.545
         0.32           263       263.613
        0.325           263       263.688
         0.33           263        263.77
        0.335           263        263.86
         0.34           263       263.958
        0.345           263       264.064
         0.35           263       264.179
        0.355           263       264.303
         0.36           263       264.436
        0.365           263        264.58
         0.37           263       264.733
        0.375           263       264.896
         0.38           263        265.07
        0.385           263       265.255
         0.39           263       265.451
        0.395           263       265.657
          0.4           263       265.874
        0.405           263       266.103
         0.41           263       266.341
        0.415           263        266.59
         0.42           263       266.849
        0.425           263       267.119
         0.43           263       267.399
        0.435           263       267.689
         0.44           263       267.989
        0.445           263       268.299
         0.45           263       268.619
        0.455           263       268.949
         0.46           263       269.289
        0.465           263       269.637
         0.47           263       269.995
        0.475           263       270.362
         0.48           263       270.738
        0.485           263       271.122
         0.49           263       271.515
        0.495           263       271.917
          0.5           263       272.328
        0.505           263       272.747
         0.51           263       273.175
        0.515           263       273.612
         0.52           263       274.058
        0.525           263       274.513
         0.53           263       274.977
        0.535           263       275.451
         0.54           263       275.935
        0.545           263       276.428
         0.55           263       276.932
        0.555           263       277.446
         0.56           263        277.97
        0.565           263       278.505
         0.57           263        279.05
        0.575           263       279.607
         0.58           263       280.174
        0.585           263       280.753
         0.59           263       281.343
        0.595           263       281.944
          0.6           263       282.557
        0.605           263       283.188
         0.61           263       283.837
        0.615           263       284.502
         0.62           263       285.182
        0.625           263       285.877
         0.63           263       286.586
        0.635           263       287.308
         0.64           263       288.042
        0.645           263       288.788
         0.65           263       289.546
        0.655           263       290.314
         0.66           263       291.092
        0.665           263       291.881
         0.67           263       292.678
        0.675           263       293.485
         0.68           263       294.301
        0.685           263       295.125
         0.69           263       295.957
        0.695           263       296.798
          0.7           263       297.645
        0.705           263         298.5
         0.71           263       299.363
        0.715           263       300.232
         0.72           263       301.108
        0.725           263       301.991
         0.73           263        302.88
        0.735           263       303.776
         0.74           263       304.678
        0.745           263       305.586
         0.75           263         306.5
        0.755           263       307.421
         0.76           263       308.347
        0.765           263       309.279
         0.77           263       310.216
        0.775           263       311.159
         0.78           263       312.105
        0.785           263       313.053
         0.79           263       314.005
        0.795           263       314.959
          0.8           263       315.916
        0.805           263       316.876
         0.81           263        317.84
        0.815           263       318.809
         0.82           263       319.782
        0.825           263        320.76
         0.83           263       321.745
        0.835           263       322.735
         0.84           263       323.733
        0.845           263       324.737
         0.85           263       325.749
        0.855           263       326.768
         0.86           263       327.794
        0.865           263       328.828
         0.87           263       329.868
        0.875           263       330.916
         0.88           263        331.97
        0.885           263       333.029
         0.89           263       334.094
        0.895           263       335.163
          0.9           263       336.235
        0.905           263       337.311
         0.91           263       338.388
        0.915           263       339.466
         0.92           263       340.544
        0.925           263       341.621
         0.93           263       342.695
        0.935           263       343.766
         0.94           263       344.832
        0.945           263       345.893
         0.95           263       346.947
        0.955           263       347.993
         0.96           263        349.03
        0.965           263       350.058
         0.97           263       351.075
        0.975           263        352.08
         0.98           263       353.072
        0.985           263       354.051
         0.99           263       355.015
        0.995           263       355.965
            1           263       356.899
        1.005           263       357.816
         1.01           263       358.716
        1.015           263       359.599
         1.02           263       360.464
        1.025           263       361.311
         1.03           263       362.139
        1.035           263        362.95
         1.04           263       363.742
        1.045           263       364.516
         1.05           263       365.272
        1.055           263       366.009
         1.06           263       366.726
        1.065           263       367.425
         1.07           263       368.104
        1.075           263       368.763
         1.08           263       369.402
        1.085           263       370.021
         1.09           263        370.62
        1.095           263       371.198
          1.1           263       371.757
        1.105           263       372.296
         1.11           263       372.815
        1.115           263       373.315
         1.12           263       373.796
        1.125           263       374.258
         1.13           263       374.702
        1.135           263       375.128
         1.14           263       375.536
        1.145           263       375.928
         1.15           263       376.302
        1.155           263       376.661
         1.16           263       377.004
        1.165           263       377.331
         1.17           263       377.644
        1.175           263       377.943
         1.18           263       378.228
        1.185           263         378.5
         1.19           263       378.759
        1.195           263       379.006
          1.2           263       379.241
        1.205           263       379.464
         1.21           263       379.677
        1.215           263        379.88
         1.22           263       380.072
        1.225           263       380.255
         1.23           263       380.429
        1.235           263       380.594
         1.24           263       380.751
        1.245           263       380.899
         1.25           263       381.041
        1.255           263       381.175
         1.26           263       381.301
        1.265           263       381.422
         1.27           263       381.536
        1.275           263       381.644
         1.28           263       381.746
        1.285           263       381.843
         1.29           263       381.935
        1.295           263       382.022
          1.3           263       382.104
        1.305           263       382.181
         1.31           263       382.255
        1.315           263       382.324
         1.32           263        382.39
        1.325           263       382.452
         1.33           263        382.51
        1.335           263       382.565
         1.34           263       382.617
        1.345           263       382.666
         1.35           263       382.712
        1.355           263       382.756
         1.36           263       382.797
        1.365           263       382.836
         1.37           263       382.872
        1.375           263       382.907
         1.38           263       382.939
        1.385           263       382.969
         1.39           263       382.998
        1.395           263       383.024
          1.4           263       383.049
        1.405           263       383.073
         1.41           263       383.095
        1.415           263       383.115
         1.42           263       383.134
        1.425           263       383.152
         1.43           263       383.169
        1.435           263       383.185
         1.44           263       383.199
        1.445           263       383.213
         1.45           263       383.225
        1.455           263       383.237
         1.46           263       383.248
        1.465           263       383.258
         1.47           263       383.267
        1.475           263       383.275
         1.48           263       383.283
        1.485           263        383.29
         1.49           263       383.297
        1.495           263       383.303
          1.5           263       383.308
