ITEM: TIMESTEP
160000
ITEM: NUMBER OF ATOMS
1005
ITEM: BOX BOUNDS mm mm mm
0 0.1
0 0.1
0 1.1
ITEM: ATOMS id type x y z ix iy iz vx vy vz fx fy fz omegax omegay omegaz radius f_Temp[0] f_heatFlux[0] 
152 1 0.0254471 0.0104912 0.0102219 0 0 0 -1.29744e-07 1.1327e-06 -5.60264e-07 7.57539e-06 1.87798e-05 -4.16812e-06 0.000240037 0.000440649 -0.000706347 0.011 590.721 -2.59438 
97 1 0.0100958 0.0228963 0.0166303 0 0 0 2.15626e-06 7.46135e-06 3.90896e-06 4.69758e-06 2.24348e-05 -3.05919e-06 -0.000731515 -1.01529e-05 0.000597284 0.011 590.765 -2.56234 
231 1 0.0360319 0.0295068 0.0103012 0 0 0 1.94065e-07 1.00202e-05 2.55186e-06 3.26758e-05 6.30242e-05 -4.45687e-05 -0.000788494 -0.000130035 0.00135443 0.011 590.733 -2.58595 
89 1 0.0620414 0.0171547 0.010426 0 0 0 -2.079e-05 1.47813e-05 1.88817e-05 6.27531e-06 8.81871e-06 1.32299e-05 -0.00115043 -0.00143331 0.00150474 0.011 589.431 -2.9286 
216 1 0.0812372 0.0269589 0.00999629 0 0 0 -2.68065e-05 7.94156e-07 4.3806e-05 2.27368e-05 -8.32598e-06 -1.81186e-05 0.000772599 -0.00313585 -0.00261083 0.011 589.366 -2.95674 
155 1 0.0150042 0.0423284 0.0103378 0 0 0 -3.92982e-06 7.32184e-06 1.08037e-06 0.000142282 -5.40129e-06 -1.75299e-05 -0.000174534 -0.000429075 9.80987e-05 0.011 590.77 -2.5673 
79 1 0.0644516 0.046088 0.0105437 0 0 0 -3.54363e-05 1.33385e-05 1.52068e-05 -2.57919e-05 1.26415e-05 -3.06101e-05 -0.00127994 -0.000386074 0.00421315 0.011 589.667 -2.80509 
180 1 0.0339228 0.0582287 0.0104702 0 0 0 3.32088e-05 1.47973e-05 9.42179e-06 0.000110542 8.75068e-05 1.20661e-05 -0.00128959 0.00296238 2.27604e-05 0.011 591.268 -2.43281 
33 1 0.0814168 0.0599237 0.0102619 0 0 0 -7.3621e-05 -4.44745e-05 3.23624e-05 -0.000102121 -8.30093e-05 -2.88297e-05 0.00341611 -0.00709575 -0.00820236 0.011 591.912 -2.27678 
2 1 0.0105505 0.0718177 0.00973629 0 0 0 6.22584e-06 5.18035e-06 -4.03174e-06 4.70718e-05 -1.59045e-05 -8.10268e-08 -0.000572478 0.000548818 -0.000267772 0.011 591.274 -2.4289 
30 1 0.0423261 0.0807625 0.0100001 0 0 0 3.67506e-05 2.9246e-06 4.61802e-06 -5.09515e-05 6.16203e-05 -4.33594e-05 -0.0005777 0.00407051 -0.00214831 0.011 591.313 -2.41125 
253 1 0.0601197 0.0675847 0.0106243 0 0 0 -5.34823e-05 1.04353e-05 5.81673e-06 -2.43492e-05 6.35601e-06 -1.8837e-05 -0.000327919 -0.00525996 -0.00229181 0.011 591.927 -2.26965 
25 1 0.0890673 0.0801573 0.00996787 0 0 0 -5.02599e-06 -3.25518e-05 2.33854e-05 2.06407e-05 -6.998e-05 1.70777e-05 0.000563512 0.000260695 0.00277112 0.011 592.002 -2.22784 
233 1 0.0222915 0.0895166 0.0118684 0 0 0 9.95071e-06 5.00048e-06 5.49794e-06 6.76229e-06 1.87037e-05 -3.30747e-05 -0.000500186 -0.0040143 0.000811152 0.011 591.258 -2.44091 
192 1 0.0689571 0.0890014 0.0109512 0 0 0 4.71739e-05 -1.53716e-05 3.05236e-05 2.07112e-05 -5.95679e-05 2.99672e-06 0.00120755 0.00467233 -0.00293677 0.011 591.989 -2.23777 
166 1 0.0440599 0.0107332 0.0202805 0 0 0 -1.92921e-05 -4.85488e-06 -1.8821e-06 -1.11721e-05 8.64225e-07 -4.84749e-06 0.000451836 -0.00158791 0.000879734 0.011 590.576 -2.6625 
203 1 0.0627298 0.0103232 0.0310016 0 0 0 -4.8765e-05 1.34382e-05 2.44101e-05 -4.54485e-05 1.85143e-05 1.80174e-05 0.00255809 -0.00192705 0.00404197 0.011 589.469 -2.90089 
234 1 0.0888458 0.0102823 0.0207319 0 0 0 -5.04982e-05 -6.84764e-06 4.41051e-05 -4.22206e-05 -2.89554e-05 -3.51129e-06 0.00389972 -0.00394257 0.00486253 0.011 589.357 -2.96427 
22 1 0.0674543 0.0308914 0.0259836 0 0 0 -2.70445e-05 3.89964e-05 3.25998e-05 1.5287e-05 5.02724e-05 1.4505e-06 -0.00227132 -4.53116e-06 -0.00156661 0.011 589.488 -2.88795 
104 1 0.0246176 0.0349093 0.0292663 0 0 0 -1.79575e-05 1.68186e-05 3.57975e-06 2.98431e-05 4.17048e-05 -6.76567e-05 -0.00196428 0.00103466 -0.000259608 0.011 590.792 -2.54667 
35 1 0.0463013 0.0343861 0.028072 0 0 0 -1.71633e-05 2.95972e-05 1.79909e-05 1.49345e-05 7.24177e-05 -6.93076e-05 0.00123372 -0.00143071 0.00237875 0.011 590.809 -2.54318 
147 1 0.0896083 0.0357669 0.0270736 0 0 0 -2.68816e-06 -5.13507e-05 9.36762e-05 2.98849e-05 -6.40813e-05 -1.02267e-05 0.00436467 0.00758525 0.00301658 0.011 589.597 -2.83801 
8 1 0.0158776 0.0580096 0.0245506 0 0 0 1.20899e-05 1.84514e-05 -2.24177e-06 0.00018783 -2.53384e-05 -2.09651e-05 -0.000956111 0.00133056 -0.00123554 0.011 591.204 -2.45993 
63 1 0.0362747 0.0531949 0.0311911 0 0 0 -1.25696e-05 1.05197e-05 2.1429e-05 0.000106206 8.72379e-05 1.15773e-05 0.00147957 -0.00661827 -0.00181537 0.011 591.439 -2.35618 
99 1 0.0576221 0.0556971 0.0284723 0 0 0 -2.02752e-05 5.19873e-05 4.19042e-05 8.04822e-05 4.22537e-06 3.89603e-06 -0.00527872 0.00668186 0.00593627 0.011 591.948 -2.2602 
224 1 0.0872008 0.0564741 0.0302903 0 0 0 -3.1867e-05 -5.67496e-05 6.71477e-05 4.6716e-05 -8.73637e-05 -0.000103153 -0.00778053 0.0139188 0.00674285 0.011 591.87 -2.28806 
126 1 0.0103591 0.0787914 0.0293282 0 0 0 7.87481e-06 5.98991e-06 -3.13577e-06 1.14953e-05 1.43803e-06 8.64414e-07 0.000404982 1.01269e-05 0.000691907 0.011 591.565 -2.29227 
163 1 0.0308218 0.0731115 0.0256591 0 0 0 3.065e-05 1.47745e-05 1.53223e-05 5.01426e-05 0.000125914 -4.28695e-06 0.0013215 -0.00320492 -0.000192161 0.011 591.323 -2.3949 
12 1 0.0745008 0.0734424 0.0257552 0 0 0 -6.83224e-05 -4.94379e-05 7.39982e-05 -1.09434e-05 -5.06632e-05 -2.49937e-05 0.00273003 -0.000844308 -0.00436685 0.011 591.999 -2.23022 
257 1 0.0531551 0.0892637 0.0262308 0 0 0 8.99604e-06 -1.01157e-05 2.5672e-05 -1.48813e-05 2.13199e-05 -3.01048e-05 -0.000492445 -0.00954987 -0.00104617 0.011 591.951 -2.25353 
243 1 0.0892876 0.0891913 0.0286312 0 0 0 -1.38391e-05 -2.70962e-05 2.45594e-05 2.7646e-06 -2.32911e-05 -1.24835e-05 -0.00197884 0.00188781 0.00183101 0.011 592.202 -2.13308 
223 1 0.0366981 0.0106925 0.0405218 0 0 0 -8.03755e-05 -1.18756e-05 -3.23146e-05 -3.71413e-05 -8.25691e-06 -6.07872e-06 -0.00284407 -0.00351472 0.00755267 0.011 590.871 -2.51167 
70 1 0.0104575 0.0206615 0.0372901 0 0 0 -4.08803e-06 1.59744e-05 7.94074e-06 1.569e-05 -1.12093e-05 -1.44652e-05 0.000428398 -0.00107392 0.00175439 0.011 591.237 -2.34245 
45 1 0.0533468 0.0234873 0.0450359 0 0 0 -0.000105053 -1.26959e-05 3.88073e-05 -7.52506e-05 7.05159e-06 -7.17478e-05 0.00263418 -0.00770349 -0.00725527 0.011 590.067 -2.62629 
108 1 0.0809228 0.01944 0.0384426 0 0 0 -8.27506e-05 -8.74478e-05 7.7406e-05 -3.23571e-06 -6.64749e-05 -9.21228e-05 0.00762659 -0.00409665 -0.0124932 0.011 589.656 -2.82033 
96 1 0.0118124 0.0470097 0.0420235 0 0 0 -2.20338e-06 2.58851e-05 5.1289e-06 6.17577e-05 -7.89618e-06 -7.37667e-05 0.000431679 -0.00045939 -0.000892109 0.011 591.092 -2.40577 
9 1 0.0408225 0.040941 0.0478627 0 0 0 -2.20026e-05 9.1344e-06 2.16094e-05 -7.47689e-06 -3.80916e-05 -4.90899e-05 -0.000646377 0.00445787 0.00285216 0.011 593.723 -1.86895 
80 1 0.0755045 0.0427522 0.0417231 0 0 0 -4.62944e-05 -8.00728e-05 0.000132591 9.42688e-05 -7.45315e-05 0.000108298 0.0102993 -0.0143967 -0.0158658 0.011 590.218 -2.56605 
146 1 0.023489 0.0652287 0.0441921 0 0 0 1.12831e-06 7.24712e-06 -3.1908e-06 7.87303e-05 4.44597e-05 -1.46641e-05 0.000491688 0.0018566 -0.000697365 0.011 591.724 -2.2126 
182 1 0.0584027 0.0528231 0.0495922 0 0 0 -1.35433e-05 1.63396e-05 7.92743e-05 7.50512e-05 -8.90749e-06 9.83335e-06 0.00859284 -0.00639137 -0.00289312 0.011 593.907 -1.81472 
240 1 0.0106826 0.0818065 0.0498456 0 0 0 -6.09027e-07 6.78308e-06 3.0071e-06 1.33892e-06 3.76343e-05 -1.70155e-05 -0.000307039 0.00013397 0.00122808 0.011 594.242 -1.72343 
204 1 0.0466069 0.0738905 0.0406826 0 0 0 9.9391e-05 9.42651e-05 -1.83429e-05 0.000763133 0.00163568 -0.000672021 0.0105893 0.00885954 0.0217671 0.011 591.452 -2.33801 
78 1 0.0692242 0.0708978 0.048365 0 0 0 4.11529e-05 1.65447e-05 0.000177407 0.000110277 5.46685e-05 -6.48927e-05 0.00241134 0.0153519 -0.00322704 0.011 594.231 -1.66593 
212 1 0.0899724 0.0687316 0.0468705 0 0 0 1.72138e-05 -2.24139e-06 3.67963e-06 4.88888e-05 -1.80096e-05 -0.000236503 0.0019178 7.36581e-05 0.00108599 0.011 594.179 -1.6966 
32 1 0.0268325 0.0897765 0.0377089 0 0 0 -4.1192e-06 4.84541e-06 1.56944e-05 -6.53042e-05 3.57237e-05 4.74516e-05 -0.000706602 -0.00322621 -0.000478301 0.011 591.667 -2.23945 
34 1 0.0702598 0.0898165 0.0390866 0 0 0 -1.03931e-05 -3.7035e-06 7.77894e-05 3.36447e-06 1.98691e-06 -4.89472e-05 -0.0073 0.00447061 -0.00143287 0.011 592.287 -2.09399 
217 1 0.0892415 0.0898425 0.0494495 0 0 0 3.58047e-06 -9.64425e-07 1.67321e-05 -2.3024e-06 -7.37389e-06 -3.29334e-05 -0.00039029 0.000246067 -0.0001689 0.011 594.119 -1.71235 
258 1 0.0129914 0.0100016 0.055099 0 0 0 -2.2229e-05 8.5467e-06 2.56052e-06 2.28548e-06 -3.87626e-06 -1.46256e-06 0.000258044 -0.002655 0.00220074 0.011 593.992 -1.74351 
164 1 0.0340177 0.0103398 0.0619124 0 0 0 6.27914e-06 5.67809e-06 -1.3382e-05 -4.25112e-05 -7.689e-06 2.18088e-05 -0.00104619 0.0114648 -0.000449811 0.011 594.069 -1.71311 
15 1 0.0686466 0.0109536 0.0545423 0 0 0 -0.000120239 -3.90689e-05 3.64782e-05 -9.14124e-05 1.67673e-05 4.90219e-06 0.000772386 0.00280109 0.00774846 0.011 592.851 -2.0339 
64 1 0.0256326 0.0267074 0.0511047 0 0 0 -1.39636e-05 1.0286e-05 3.49763e-05 1.20311e-06 -2.38423e-05 -3.28204e-05 0.000656711 -0.00159043 -0.00293331 0.011 594.024 -1.73743 
191 1 0.089575 0.0318857 0.0533658 0 0 0 7.3434e-06 -0.000128487 7.90019e-05 5.73186e-05 -0.000355331 -3.02048e-05 0.00087862 0.0306826 0.0296618 0.011 592.545 -2.16852 
199 1 0.0102991 0.0380888 0.0609945 0 0 0 -9.24095e-06 2.12381e-05 1.31886e-05 4.30676e-05 2.0459e-05 -5.04238e-05 -0.00041048 -0.00122455 0.00246624 0.011 594.011 -1.73295 
123 1 0.0652346 0.0343339 0.0585743 0 0 0 -6.68241e-05 -5.34723e-05 5.34344e-05 -1.20594e-05 -0.000176286 -3.44107e-05 -0.00250073 0.00969873 -0.00143661 0.011 592.649 -2.1092 
43 1 0.0106011 0.0604897 0.0611534 0 0 0 -2.03955e-06 1.88062e-05 7.56206e-06 3.99619e-05 1.12852e-05 -4.35674e-05 -0.00499192 -0.00118302 0.000758864 0.011 594.672 -1.52542 
161 1 0.03945 0.0598856 0.0574857 0 0 0 -1.02047e-05 -5.22979e-06 -2.01887e-06 8.24994e-05 -1.3638e-05 -8.81319e-05 -0.00338642 -0.00247828 -0.00364931 0.011 594.468 -1.62372 
92 1 0.0894369 0.0558519 0.0648095 0 0 0 -4.56748e-06 0.000102704 0.000234649 -0.000165824 -0.000317675 0.000250847 0.0477364 0.0214554 -0.00499328 0.011 594.354 -1.59982 
54 1 0.0259863 0.0756812 0.0637091 0 0 0 3.85243e-06 1.40347e-05 -1.50233e-05 7.80336e-05 3.41836e-05 4.20843e-05 0.00400732 0.00137896 0.000693613 0.011 594.777 -1.48354 
185 1 0.0534573 0.0751316 0.0613724 0 0 0 -5.6975e-05 -3.55008e-06 0.00010422 6.4459e-05 8.9006e-06 -3.40132e-05 0.00286582 -0.0234065 0.00445637 0.011 594.353 -1.609 
4 1 0.0399265 0.0897068 0.0543666 0 0 0 -5.83826e-06 -1.14029e-05 1.72741e-05 -0.000118637 -2.93199e-05 4.80251e-05 8.73205e-05 0.00430825 -0.00186901 0.011 594.484 -1.61423 
103 1 0.0879592 0.0164212 0.0675627 0 0 0 0.0147493 -0.00103722 0.000726128 -0.000501277 4.04756e-05 0.000132896 -0.357966 -2.65458 4.20677 0.011 592.98 -1.9707 
52 1 0.0140767 0.020984 0.0728803 0 0 0 5.23787e-06 1.73035e-06 4.38987e-06 -9.54945e-07 1.93571e-05 -3.2302e-06 0.00108602 0.00422939 -0.00376255 0.011 594.258 -1.61922 
28 1 0.0400635 0.032044 0.0674216 0 0 0 2.41383e-05 5.34699e-05 3.19602e-05 -2.90814e-05 -0.000106287 -5.85908e-05 -0.00240373 -0.00557819 0.00673251 0.011 594.2 -1.64579 
232 1 0.0333549 0.0175475 0.0819453 0 0 0 6.00917e-05 6.30211e-06 -1.31059e-05 -4.34968e-05 -7.753e-06 3.14109e-05 0.00184522 -0.00312892 0.0071549 0.011 594.214 -1.63452 
153 1 0.0266108 0.0487987 0.0697433 0 0 0 -1.59782e-05 2.95101e-05 1.2701e-05 6.93509e-05 2.46518e-05 9.97345e-06 0.00186203 0.0031503 -0.00164939 0.011 594.352 -1.57726 
140 1 0.0580444 0.0362372 0.0784926 0 0 0 1.41447e-05 -1.53568e-05 8.64128e-05 -4.34675e-05 -0.000165938 -6.37344e-05 0.00542211 0.000677643 -0.0125663 0.011 593.253 -1.83879 
189 1 0.0810388 0.0375938 0.0723361 0 0 0 2.06249e-05 2.9125e-05 2.08209e-05 3.62295e-05 -0.000430958 -2.65474e-05 -0.0193903 -0.00943576 -0.00353064 0.011 593.13 -1.89865 
200 1 0.0104472 0.0513287 0.0831918 0 0 0 4.4745e-06 8.19158e-06 3.1788e-05 -1.62203e-05 -5.87541e-06 -7.04467e-05 0.00453926 -0.00151094 0.000624804 0.011 594.753 -1.48261 
157 1 0.0560382 0.0559517 0.0707403 0 0 0 -1.20296e-05 2.22004e-05 8.03663e-05 1.36921e-05 -0.000138345 -0.000160072 -0.00481391 0.00484696 0.0090394 0.011 594.37 -1.59828 
14 1 0.0104601 0.0722664 0.0801941 0 0 0 -1.56482e-05 1.54741e-05 4.70837e-05 2.81383e-05 -4.05978e-05 -0.000143944 -0.00355543 -0.00504493 0.00182247 0.011 594.813 -1.45746 
69 1 0.0401967 0.0684188 0.0785521 0 0 0 -0.000145784 -9.58124e-05 -7.30909e-07 0.000447531 0.00026592 0.000110779 0.0169604 -0.0243445 -0.000357782 0.011 594.802 -1.46112 
85 1 0.0738106 0.0699003 0.0696536 0 0 0 -0.000153882 -2.90536e-05 0.000358852 -0.000646184 -0.000479703 0.000130767 0.00011239 -0.0439564 0.00930319 0.011 594.438 -1.55897 
209 1 0.0105735 0.0898516 0.0690394 0 0 0 -6.37962e-06 6.39917e-07 1.00044e-05 2.36735e-05 9.48125e-06 -2.26215e-05 -0.000257121 -0.00143317 3.97451e-05 0.011 594.787 -1.4763 
127 1 0.0374779 0.089661 0.0753379 0 0 0 -2.55123e-05 -7.21196e-06 4.23194e-05 0.000140275 7.67364e-05 -3.09718e-06 -0.00342328 -0.00770063 -0.0021837 0.011 594.778 -1.47515 
183 1 0.0653238 0.0896845 0.0712186 0 0 0 -0.000120272 -5.55757e-06 0.000115821 -5.47367e-05 -4.55238e-05 1.9631e-05 -0.0104665 0.0080846 -0.011379 0.011 594.445 -1.55385 
194 1 0.0893174 0.0897645 0.070022 0 0 0 -6.02953e-06 6.5797e-06 1.77476e-05 -8.55919e-07 -1.4379e-05 -2.78519e-05 -0.00148302 -0.000357223 -0.00095059 0.011 594.423 -1.57022 
187 1 0.0105534 0.0103439 0.0908398 0 0 0 1.07981e-05 5.99395e-07 1.85455e-06 -1.33688e-05 1.77751e-05 8.90136e-07 0.000264826 -5.81705e-05 -0.000804036 0.011 594.299 -1.5913 
229 1 0.086822 0.00985303 0.0875424 0 0 0 0.000432316 1.20753e-05 0.000228546 -6.59891e-05 -2.59025e-05 -2.15795e-05 0.0209217 -0.0867344 -0.0410716 0.011 593.13 -1.89085 
58 1 0.0107809 0.0316263 0.0910414 0 0 0 1.33936e-05 3.79956e-06 4.91866e-06 -1.67497e-05 1.3331e-05 2.35121e-05 -0.00100817 -0.0026039 0.00132478 0.011 594.333 -1.57607 
53 1 0.0528242 0.0187667 0.0909069 0 0 0 0.000103224 -0.000109078 -2.87744e-06 -3.82964e-05 -1.83822e-05 3.35075e-05 -0.0044235 0.00150544 -0.0212683 0.011 593.208 -1.84917 
167 1 0.0729559 0.0255416 0.0880448 0 0 0 0.000159537 9.87952e-06 -3.14322e-05 -5.66431e-05 -5.26135e-05 8.51063e-05 0.0115224 0.00128329 0.0329716 0.011 593.076 -1.90317 
49 1 0.030763 0.0381402 0.0876043 0 0 0 2.25198e-05 -7.79882e-06 -6.84812e-06 -1.36735e-05 5.0566e-06 2.13976e-05 0.000436441 0.00410166 -0.0026976 0.011 594.317 -1.5846 
39 1 0.0897521 0.0377392 0.0918736 0 0 0 -1.58658e-05 9.54695e-05 2.22744e-05 3.23718e-06 -6.75616e-05 6.81125e-06 0.00631266 0.00320062 -0.00909102 0.011 593.25 -1.83307 
102 1 0.0284138 0.0591565 0.0943147 0 0 0 -0.000113461 -8.04212e-05 4.12932e-05 0.0002542 0.000124571 -0.000185953 -0.0316032 0.0217465 0.0111229 0.011 594.799 -1.46365 
47 1 0.0478041 0.0509477 0.0901402 0 0 0 -2.4228e-05 1.74881e-05 7.5234e-05 0.000105114 -0.000120215 -0.000164623 4.97929e-05 -0.0118065 0.0070125 0.011 594.653 -1.53097 
255 1 0.0724692 0.0532993 0.0843202 0 0 0 1.48888e-05 7.1198e-05 -6.39377e-06 3.96052e-05 -0.000173347 -0.000152664 0.0122354 0.000666696 -9.84804e-06 0.011 594.331 -1.61017 
260 1 0.0897774 0.0584193 0.0958557 0 0 0 1.40981e-05 2.05102e-05 4.28722e-05 -1.43428e-05 -2.97698e-05 -9.57946e-05 0.000288575 0.000898278 0.00211362 0.011 594.364 -1.59247 
93 1 0.0702565 0.0726114 0.0941199 0 0 0 -3.04808e-05 2.28906e-05 8.09904e-05 1.17937e-05 -8.31097e-05 -8.39721e-05 0.00434989 -0.00369798 0.00329193 0.011 594.442 -1.55453 
133 1 0.0892945 0.0761733 0.0853082 0 0 0 -9.47764e-06 2.14582e-05 4.55292e-05 -1.44458e-05 -5.04745e-05 -8.6166e-05 -0.000629568 0.00550761 -0.00405925 0.011 594.441 -1.557 
256 1 0.0207011 0.0893779 0.0883457 0 0 0 -2.2513e-05 1.68528e-05 1.5486e-05 4.15773e-05 -5.24213e-05 -3.66636e-05 -0.000513118 0.00428272 2.48277e-05 0.011 594.817 -1.45415 
6 1 0.0531529 0.0837566 0.0878196 0 0 0 -7.17421e-05 1.71896e-05 0.000126586 0.00011167 3.43906e-05 -1.39542e-05 0.0086787 -0.00230909 0.0067137 0.011 594.486 -1.53464 
246 1 0.0105979 0.010483 0.11218 0 0 0 6.81393e-06 6.75248e-06 -3.08583e-06 1.85934e-06 -4.78087e-06 2.43585e-05 -0.000302696 0.000116061 0.00036515 0.011 594.372 -1.57437 
149 1 0.0295194 0.010607 0.101695 0 0 0 2.68051e-05 -1.09383e-05 -2.00043e-05 -3.51647e-06 2.44054e-05 5.0685e-05 -0.00220405 8.51356e-05 -0.00299087 0.011 594.299 -1.5927 
156 1 0.049362 0.010707 0.110753 0 0 0 6.35598e-06 -9.6771e-06 4.08032e-06 -4.79317e-06 -7.15788e-06 2.77309e-05 -0.000678413 -0.00281799 -0.000651794 0.011 594.349 -1.58557 
91 1 0.0702281 0.0100967 0.10185 0 0 0 7.41248e-05 -5.90333e-06 -7.08738e-05 -5.83018e-06 -3.52006e-05 2.40363e-05 -0.00452867 -0.0167625 -0.0111965 0.011 593.264 -1.8251 
241 1 0.0901002 0.0104288 0.108616 0 0 0 -5.60972e-05 -5.30313e-05 8.95399e-05 1.23816e-05 -5.07303e-06 -1.11917e-05 -0.00492931 0.0129903 0.00441517 0.011 594.667 -1.54206 
139 1 0.0164451 0.031048 0.111082 0 0 0 -5.37873e-07 1.00989e-05 4.03785e-06 -2.35941e-06 -4.08754e-06 2.08436e-05 0.00100078 0.00130838 0.000292518 0.011 594.374 -1.57355 
249 1 0.0399637 0.029489 0.104757 0 0 0 2.27091e-05 -1.72979e-05 -1.08761e-05 7.69905e-05 4.04317e-05 1.35957e-05 0.00369317 -0.00905581 0.00724716 0.011 594.253 -1.6119 
5 1 0.0298517 0.0496355 0.113927 0 0 0 -3.01336e-06 0.00011011 8.97241e-05 -6.30408e-05 -0.00050234 -0.000303323 0.0120074 -0.00382012 -0.0156002 0.011 594.437 -1.54301 
148 1 0.0510922 0.0484016 0.111518 0 0 0 -2.54931e-05 -1.33541e-05 5.27304e-05 -1.35969e-05 -5.76796e-05 -0.000155766 0.00541387 0.00735488 0.00125456 0.011 594.75 -1.50435 
122 1 0.0693582 0.041249 0.102362 0 0 0 -3.77711e-05 -3.22092e-05 9.1077e-06 6.56169e-05 -6.6196e-05 7.45996e-05 -0.00616321 -0.000783143 -0.00372701 0.011 593.262 -1.82365 
254 1 0.0886872 0.044667 0.111889 0 0 0 5.05827e-06 -1.48672e-05 3.76774e-05 3.26753e-05 2.30614e-05 -4.43252e-05 0.00220795 -0.00273279 0.000640569 0.011 594.674 -1.53674 
251 1 0.0105111 0.0513842 0.10502 0 0 0 6.14935e-06 0.000140616 2.74743e-05 -5.76026e-05 -0.000533913 -5.08072e-05 -0.01786 -0.00131218 0.0122979 0.011 594.797 -1.46176 
23 1 0.0687602 0.0608119 0.111977 0 0 0 -1.82348e-05 -6.30505e-06 1.82921e-05 2.67899e-05 -1.2075e-06 -3.08963e-06 0.00118346 0.00174265 0.00128368 0.011 594.391 -1.5628 
84 1 0.0135716 0.0732806 0.100602 0 0 0 -2.85264e-05 1.88979e-05 4.37269e-05 4.09672e-05 -6.15811e-05 -0.000139211 0.00261767 0.00474602 -0.010558 0.011 594.679 -1.51466 
219 1 0.0316308 0.0712547 0.11252 0 0 0 -3.09614e-05 6.10582e-05 9.29783e-05 -6.1648e-05 -0.000317029 -0.000309971 -0.00809681 -0.00657879 0.0159929 0.011 594.042 -1.63455 
59 1 0.0506532 0.0683149 0.102673 0 0 0 -3.14703e-05 2.82189e-05 9.71069e-05 2.13727e-05 -0.00015782 -0.000207889 -0.00285712 0.00834909 -0.00878323 0.011 594.449 -1.55152 
158 1 0.0876352 0.0711537 0.112626 0 0 0 -1.13566e-05 -9.27021e-06 4.61561e-05 4.57121e-05 -7.88968e-06 -9.92226e-05 0.00106629 -0.00384762 -0.0027086 0.011 594.377 -1.5692 
176 1 0.0106112 0.0894532 0.114739 0 0 0 -1.7032e-05 1.51093e-05 4.99732e-05 1.37449e-05 -3.43632e-05 -0.000129732 -0.00253392 -0.0096901 0.0014182 0.011 593.954 -1.67797 
128 1 0.0375957 0.0892798 0.102108 0 0 0 -7.76771e-05 7.23192e-06 4.71752e-05 8.37257e-05 -7.03436e-05 -2.40992e-07 -0.00473175 -0.00715987 -0.00689642 0.011 594.77 -1.47458 
37 1 0.0633727 0.0898714 0.105254 0 0 0 -3.40484e-05 5.05116e-06 0.000100392 0.000117927 -1.25096e-05 -6.41954e-05 -0.00646908 0.00959669 -0.00275259 0.011 594.421 -1.56357 
211 1 0.0861895 0.0895475 0.101444 0 0 0 2.44714e-05 1.90632e-06 3.20969e-05 -5.81649e-05 -2.06513e-05 -3.58298e-05 -0.000378131 -0.00368157 0.00242344 0.011 594.439 -1.55583 
250 1 0.0102785 0.0141821 0.133063 0 0 0 -5.39997e-07 3.71796e-07 4.02755e-06 -2.26254e-05 -7.98779e-05 4.57891e-05 0.00147444 -0.00071256 4.02515e-05 0.011 594.383 -1.56827 
87 1 0.0293521 0.0106176 0.123273 0 0 0 1.16371e-06 7.5196e-06 -5.54738e-06 3.76329e-06 -5.30612e-05 5.67916e-05 -9.36103e-06 -0.000689503 2.72552e-05 0.011 594.38 -1.56989 
48 1 0.0483702 0.0154429 0.131906 0 0 0 -1.35713e-05 -2.08881e-05 1.19758e-05 3.79139e-05 4.74103e-06 1.01074e-05 0.00155073 -0.00120076 -0.00278148 0.011 594.438 -1.54435 
215 1 0.0672498 0.0102579 0.12315 0 0 0 -2.13329e-05 -4.28769e-06 -1.05756e-05 2.75298e-05 4.7307e-06 -1.34791e-06 0.00256135 0.00369216 0.00164713 0.011 594.773 -1.49217 
242 1 0.0894631 0.0110431 0.129597 0 0 0 3.60523e-05 -1.08478e-06 4.72488e-05 -4.28657e-06 -2.82581e-06 -1.57455e-05 -0.000193322 -0.000241042 0.000223514 0.011 594.91 -1.43124 
175 1 0.0589647 0.0291886 0.117542 0 0 0 -2.48838e-05 -4.76846e-06 -5.98912e-06 4.29931e-05 -1.64843e-05 3.76434e-05 -0.00135495 -0.00375355 -0.00017325 0.011 594.852 -1.45877 
72 1 0.0799093 0.0263673 0.116905 0 0 0 -2.31699e-05 -1.88368e-05 3.90526e-05 4.70128e-05 -1.62162e-07 -3.14063e-05 -0.00345074 -0.00220424 -0.00195067 0.011 594.885 -1.44834 
82 1 0.0108145 0.0371689 0.130154 0 0 0 1.11907e-05 5.40177e-06 6.86383e-06 -3.0415e-05 -7.68405e-05 3.76822e-05 -0.000190561 -0.000335492 -0.000809686 0.011 594.347 -1.585 
227 1 0.0401918 0.0345462 0.125451 0 0 0 -3.70411e-05 -1.06526e-05 -3.34993e-06 7.86706e-05 -4.67863e-05 3.46235e-05 -0.00381116 0.00639659 0.00298178 0.011 594.411 -1.55697 
67 1 0.0717984 0.0446655 0.125601 0 0 0 -1.23953e-05 -5.10946e-06 1.83806e-05 3.52967e-05 -1.59589e-05 -3.27955e-05 -0.00115952 -0.000104067 -0.00201659 0.011 594.879 -1.44508 
24 1 0.0895716 0.035032 0.133288 0 0 0 -1.42129e-05 -1.16073e-05 2.03089e-05 2.15704e-05 1.22878e-05 -2.09509e-05 0.00142347 0.0013885 0.000722716 0.011 594.92 -1.42463 
151 1 0.0511755 0.0661474 0.124505 0 0 0 -6.57598e-06 -0.000227613 0.000106845 0.000701816 6.76949e-05 -0.000226436 0.0234123 -0.00694087 0.00286858 0.011 594.37 -1.57242 
205 1 0.0897512 0.0571852 0.128849 0 0 0 -2.08704e-05 -4.10824e-05 4.22891e-05 5.79642e-05 7.33096e-05 -8.882e-05 0.000740818 0.00286077 0.00508128 0.011 594.423 -1.54884 
66 1 0.0105903 0.0685175 0.120376 0 0 0 -6.72196e-06 1.0352e-05 3.22665e-05 -1.95832e-05 -0.000102003 -0.000134733 0.00160007 -0.00132681 0.000790315 0.011 593.993 -1.66016 
154 1 0.0700191 0.0798267 0.122023 0 0 0 2.21885e-05 -2.95068e-06 6.20807e-05 0.00010365 4.14247e-05 -8.38833e-05 0.00424327 0.00250742 -0.00184748 0.011 594.377 -1.56834 
113 1 0.0279086 0.0892588 0.127593 0 0 0 -7.81778e-05 1.64191e-05 1.24873e-05 0.000174738 -0.00010964 -0.000194249 -0.00242721 0.0141517 -0.00596877 0.011 593.913 -1.69757 
57 1 0.0486659 0.0879573 0.121137 0 0 0 -0.000126081 0.000165533 0.000113027 0.000318458 -0.000356293 -0.000137596 -0.04459 -0.0253571 0.0340422 0.011 593.952 -1.67889 
226 1 0.0894244 0.0898457 0.122582 0 0 0 4.17676e-06 -3.44878e-06 3.01986e-05 5.12212e-05 -2.16044e-05 -3.93858e-05 -0.00135884 0.00226534 0.000705428 0.011 594.374 -1.57034 
115 1 0.0349099 0.00967738 0.147785 0 0 0 -7.52665e-06 -4.18994e-06 2.28232e-05 4.44426e-05 -1.90421e-05 -2.72873e-05 0.00195024 0.00204539 -3.56355e-05 0.011 594.394 -1.56042 
137 1 0.0807296 0.010188 0.14847 0 0 0 1.87633e-05 -7.49379e-06 2.23568e-05 -1.10441e-05 1.0014e-05 -1.63573e-05 0.00177256 -0.00174101 -0.00234709 0.011 594.895 -1.43609 
134 1 0.0263026 0.0262743 0.139302 0 0 0 -3.78952e-06 5.72177e-06 3.18913e-05 -2.77455e-06 -0.00011219 -4.33568e-05 -0.00126754 -0.00193841 -0.000185152 0.011 594.384 -1.56756 
129 1 0.0507489 0.0308356 0.146554 0 0 0 2.44137e-05 -5.98611e-05 6.06923e-06 -2.42441e-05 0.000102659 4.52602e-06 -0.00260919 -0.00162316 -0.0055409 0.011 594.833 -1.46209 
75 1 0.0700299 0.0264403 0.137483 0 0 0 1.09163e-05 -5.07593e-05 1.62123e-05 1.03061e-06 5.8897e-05 -1.38531e-05 0.00424766 0.00224538 0.00267995 0.011 594.919 -1.42422 
198 1 0.0289128 0.047585 0.137643 0 0 0 2.13456e-05 2.24725e-05 1.44558e-05 -3.2655e-05 -0.000130384 -1.81652e-05 0.000792113 -0.000572854 -0.00333057 0.011 594.313 -1.59835 
244 1 0.0620008 0.0485663 0.144288 0 0 0 -3.65712e-05 -7.67367e-05 2.46005e-05 0.000165598 9.74041e-05 -2.88452e-05 0.00460908 -0.000914004 0.0134072 0.011 594.843 -1.46048 
135 1 0.0847493 0.0491532 0.148404 0 0 0 3.45864e-05 -2.36125e-05 4.31549e-05 -9.04075e-05 3.88707e-05 -7.2587e-05 0.000479272 0.00203138 -0.00439931 0.011 594.858 -1.45271 
71 1 0.009913 0.0567031 0.137454 0 0 0 9.12426e-06 1.3372e-05 5.34157e-06 1.47543e-05 -3.60826e-05 -5.45816e-05 -0.000645497 0.000624201 0.00213261 0.011 593.991 -1.65925 
10 1 0.0453634 0.0626078 0.145413 0 0 0 9.69296e-05 2.47426e-06 -2.54313e-05 -5.25778e-06 -0.000119451 -5.05833e-05 -0.0301387 0.0131413 -0.0390215 0.011 593.992 -1.6587 
17 1 0.0720907 0.0654353 0.136836 0 0 0 -3.41243e-05 -2.71506e-05 4.93106e-05 0.000111919 3.12976e-05 -0.000101606 -0.00232626 -0.00153296 -0.00841263 0.011 594.406 -1.55631 
29 1 0.0105469 0.0805239 0.137846 0 0 0 -3.77353e-05 -6.41478e-06 4.67023e-05 0.000162994 -5.14233e-05 -0.000165205 0.000840866 -0.00425382 -0.000721069 0.011 593.919 -1.69308 
132 1 0.0280526 0.0685319 0.133565 0 0 0 -7.67652e-06 6.06718e-05 4.31262e-05 0.000109427 -0.000269251 -0.000246446 0.000621524 0.00389408 0.00863015 0.011 593.947 -1.68031 
170 1 0.0351472 0.0822779 0.148395 0 0 0 0.000129426 0.000211342 -0.000177846 -0.000128456 -0.000273707 -5.80665e-05 -0.0570244 -0.0614785 -0.0943755 0.011 593.919 -1.69504 
173 1 0.0556914 0.0812719 0.140677 0 0 0 5.99105e-05 0.000139848 4.94407e-05 -8.1504e-05 -0.000406607 -7.63237e-05 0.0728886 0.0277822 0.0524486 0.011 594.327 -1.59433 
50 1 0.0799641 0.0848752 0.140414 0 0 0 2.97319e-05 -3.72425e-05 4.36634e-05 1.91002e-05 4.97543e-05 -6.65287e-05 0.00137356 0.00034271 0.00346953 0.011 594.367 -1.57397 
252 1 0.0114714 0.0115253 0.154227 0 0 0 -0.000239988 1.86464e-05 2.63533e-05 -0.000617345 -3.37941e-05 0.000126293 0.00327249 -0.0353608 0.117695 0.011 594.418 -1.55057 
101 1 0.0483178 0.0164207 0.161937 0 0 0 3.85864e-06 -8.10351e-06 1.43942e-05 1.30451e-05 9.70513e-06 -1.90284e-05 -0.00110928 0.000766801 0.000548074 0.011 594.512 -1.51139 
171 1 0.068159 0.0101682 0.164893 0 0 0 5.43914e-06 -2.77292e-06 9.1818e-06 -1.3308e-06 1.64191e-05 -1.10196e-05 0.000364744 -0.000228985 -0.000520381 0.011 594.804 -1.47345 
248 1 0.089461 0.0287929 0.153384 0 0 0 1.79587e-05 -2.04613e-05 2.36447e-05 -1.12995e-05 2.64194e-05 -2.5929e-05 -0.000786649 0.00172336 0.00231222 0.011 594.888 -1.43879 
136 1 0.0107577 0.0375698 0.151741 0 0 0 9.96523e-06 5.97054e-05 -3.05537e-06 -1.96532e-05 -0.000429733 5.5712e-06 -0.00461618 0.00070419 0.00559455 0.011 594.41 -1.55518 
193 1 0.0326594 0.0374632 0.156005 0 0 0 2.3645e-05 2.62338e-05 8.43662e-06 -8.75976e-05 -0.000152226 -1.69793e-05 -0.00174216 0.00233173 -0.000918178 0.011 594.469 -1.53144 
179 1 0.0690768 0.0337247 0.15804 0 0 0 2.9661e-05 -4.26685e-05 2.20645e-05 -1.54873e-05 5.9311e-05 -1.42764e-05 -0.00442155 -0.00055698 -0.000230771 0.011 594.89 -1.43747 
74 1 0.0226517 0.0610596 0.153408 0 0 0 -1.07317e-05 2.23605e-05 1.28728e-05 0.000114753 -2.9392e-05 -9.20681e-05 0.000860229 -0.00404504 -0.000189092 0.011 594.028 -1.64292 
197 1 0.0658654 0.0673481 0.156421 0 0 0 4.23497e-05 -9.98075e-06 6.86944e-05 -8.83356e-05 -1.96799e-05 -0.000188907 0.00514808 0.00723338 -0.00465995 0.011 594.324 -1.59287 
76 1 0.0871352 0.0694823 0.153393 0 0 0 4.16826e-05 -2.23476e-05 4.71759e-05 -8.40054e-05 2.60735e-05 -7.11078e-05 -0.000463957 -0.00603087 0.00238947 0.011 594.368 -1.57393 
56 1 0.0141629 0.0895892 0.156584 0 0 0 -3.8261e-05 4.17816e-07 2.80328e-05 0.000153722 2.06723e-07 -0.000122512 -0.00227124 0.00310427 -0.003512 0.011 593.989 -1.66111 
65 1 0.0463632 0.0894547 0.165194 0 0 0 -6.29263e-06 2.7292e-05 -2.4293e-05 -0.000144021 -5.7708e-05 -2.7588e-05 0.00558072 0.0025234 -0.00304079 0.011 593.944 -1.68199 
119 1 0.067224 0.0892552 0.157398 0 0 0 3.94213e-05 -4.153e-05 6.00301e-05 -8.06208e-05 9.09112e-05 -0.000185261 -0.00552034 0.000792905 0.00486549 0.011 594.33 -1.59207 
236 1 0.0897944 0.0897935 0.158445 0 0 0 3.08755e-06 -8.33667e-06 2.44324e-05 2.16509e-06 5.4257e-06 -3.5821e-05 -0.00217851 0.000567462 0.000713528 0.011 594.323 -1.59498 
107 1 0.0115339 0.0106757 0.175584 0 0 0 -0.000190769 -1.4102e-05 2.96411e-05 -0.000393133 -2.28672e-05 0.000154025 0.000194062 0.0320544 0.0139362 0.011 594.858 -1.44442 
81 1 0.0347398 0.0105193 0.177322 0 0 0 1.69064e-05 7.50467e-06 1.36017e-05 3.11004e-05 -2.3126e-05 9.29708e-07 0.000838606 0.00178613 -0.000738457 0.011 594.85 -1.44793 
143 1 0.0894264 0.012201 0.168141 0 0 0 4.87802e-06 1.33817e-06 1.17519e-05 -1.41058e-06 -2.55057e-06 -6.081e-06 -0.00416606 0.000554435 5.51745e-06 0.011 594.502 -1.52435 
31 1 0.0404819 0.0312283 0.174775 0 0 0 3.93628e-05 1.87277e-05 9.12922e-06 -0.000133687 -9.71932e-05 -6.80614e-06 -0.000535263 0.00056812 -0.00376748 0.011 594.79 -1.47319 
144 1 0.0608947 0.0261748 0.176072 0 0 0 1.32773e-05 -1.36593e-05 2.20754e-05 -2.77106e-05 3.99683e-05 -1.13252e-05 0.00186841 -0.00141972 -0.000655423 0.011 594.537 -1.5117 
131 1 0.0181099 0.034313 0.17172 0 0 0 1.86031e-05 4.80476e-05 -7.77273e-06 -6.80719e-05 -0.000342847 1.89534e-05 0.00525901 -0.000641679 -0.00587702 0.011 594.824 -1.461 
38 1 0.052055 0.0478705 0.182608 0 0 0 -7.09382e-05 6.20022e-05 7.18425e-05 0.000221151 -0.000259447 -0.000272434 0.00227277 -0.0108233 0.0175054 0.011 594.463 -1.54672 
55 1 0.0892417 0.0412925 0.170438 0 0 0 2.21463e-06 -6.6159e-06 1.52482e-05 9.36498e-07 2.00041e-06 -1.96582e-05 3.50971e-07 -0.000651622 0.000372689 0.011 594.448 -1.55217 
124 1 0.0106761 0.0599137 0.174834 0 0 0 7.03229e-07 1.65753e-06 1.69514e-05 -1.17499e-05 -2.36808e-05 -6.05515e-05 0.000497422 -0.00157608 -0.000143986 0.011 594.617 -1.50386 
196 1 0.0303947 0.051904 0.171181 0 0 0 1.89665e-05 5.29758e-05 -3.02652e-06 -0.000116836 -0.000240576 -1.6426e-05 -0.000972883 0.00408341 0.00679221 0.011 594.578 -1.52196 
3 1 0.0483097 0.0624775 0.167069 0 0 0 3.56987e-05 7.0008e-05 3.53025e-05 -0.00012119 -0.000277597 -0.000160303 0.00453774 -0.0081589 -0.00907812 0.011 594.516 -1.55156 