ITEM: TIMESTEP
220000
ITEM: NUMBER OF ATOMS
1005
ITEM: BOX BOUNDS mm mm mm
0 0.1
0 0.1
0 1.1
ITEM: ATOMS id type x y z ix iy iz vx vy vz fx fy fz omegax omegay omegaz radius f_Temp[0] f_heatFlux[0] 
152 1 0.0254471 0.0104912 0.0102218 0 0 0 -2.88298e-06 -2.10883e-06 -4.07585e-06 3.47234e-06 -1.47077e-06 2.9204e-06 0.000117122 0.000297302 -0.000161127 0.011 590.713 -2.59666 
97 1 0.0100959 0.0228962 0.0166303 0 0 0 -2.04753e-07 -9.90229e-07 5.68619e-07 2.71902e-06 -1.48173e-06 3.04562e-06 0.000176701 -3.69438e-05 -0.000103904 0.011 590.758 -2.5645 
231 1 0.0360322 0.0295066 0.0103013 0 0 0 4.12347e-07 -4.40045e-06 3.92066e-06 8.5552e-06 -6.86438e-06 6.38886e-06 0.000529147 -0.000121106 -0.000173705 0.011 590.725 -2.5882 
89 1 0.0620409 0.0171547 0.0104265 0 0 0 -1.38358e-05 1.50173e-06 8.75982e-06 -1.53689e-06 1.14683e-05 -2.55774e-06 -0.000273935 -0.000790661 -0.000805514 0.011 589.415 -2.93286 
216 1 0.0812367 0.0269586 0.00999746 0 0 0 -1.17916e-05 -7.67775e-06 2.53784e-05 -8.6251e-06 4.38994e-06 8.62632e-07 0.00147085 -0.00177559 -9.13547e-06 0.011 589.35 -2.96119 
155 1 0.0150043 0.0423284 0.0103379 0 0 0 -3.76122e-06 9.69146e-07 2.05409e-06 -3.73185e-06 -1.3274e-06 1.95468e-06 -3.06186e-05 -0.000345249 0.000596075 0.011 590.763 -2.56931 
79 1 0.0644508 0.0460877 0.0105434 0 0 0 -1.97592e-05 -4.2921e-06 -7.04328e-06 -1.49965e-06 1.35051e-05 1.05935e-05 5.23239e-06 -0.000523737 0.00322602 0.011 589.653 -2.80852 
180 1 0.0339228 0.0582287 0.0104702 0 0 0 -6.46742e-06 3.93196e-07 1.3961e-07 -5.95217e-06 -4.4507e-06 2.55859e-06 -3.26556e-05 -0.000584533 -0.000644747 0.011 591.266 -2.43341 
33 1 0.0814146 0.0599214 0.010263 0 0 0 -4.31058e-05 -4.50446e-05 2.44165e-05 5.84278e-06 1.73793e-05 -5.72023e-06 0.00348165 -0.00463254 -0.00677518 0.011 591.906 -2.27864 
2 1 0.0105505 0.0718177 0.0097363 0 0 0 -1.84826e-06 1.04654e-06 1.01222e-07 -1.96224e-06 -2.07155e-06 3.40127e-06 -0.000119834 -0.000150929 -3.53593e-05 0.011 591.271 -2.42953 
30 1 0.042326 0.0807625 0.01 0 0 0 -2.48566e-06 4.24529e-07 7.36465e-08 -1.01438e-05 -2.29396e-06 2.8887e-06 -6.01946e-05 -0.000222681 0.000206597 0.011 591.311 -2.41193 
253 1 0.0601192 0.0675845 0.0106245 0 0 0 -1.05071e-05 -2.62499e-06 2.01327e-06 -2.71536e-06 1.29701e-05 -1.55595e-06 0.000161711 -0.000516382 -0.00197897 0.011 591.922 -2.27111 
25 1 0.0890676 0.080156 0.00996868 0 0 0 5.46972e-06 -2.61325e-05 1.6128e-05 -4.12144e-06 1.13091e-05 -4.14873e-06 0.000113518 0.00131445 0.00295827 0.011 591.998 -2.22917 
233 1 0.0222915 0.0895166 0.0118684 0 0 0 -1.25842e-06 1.34103e-07 -5.54647e-07 -2.60582e-06 -1.63742e-06 6.34524e-07 5.0471e-05 0.000150016 -0.000115108 0.011 591.255 -2.44149 
192 1 0.0689572 0.0890006 0.0109515 0 0 0 -1.268e-06 -1.57409e-05 4.08849e-06 -1.49734e-05 1.35354e-05 -5.0413e-06 0.00135677 -0.000726433 -0.00377666 0.011 591.984 -2.23908 
166 1 0.0440592 0.0107331 0.0202804 0 0 0 -1.80893e-05 -3.45839e-06 -3.96334e-06 6.78584e-06 5.14176e-06 9.25097e-06 0.000563033 -0.00166209 0.000997529 0.011 590.567 -2.6652 
203 1 0.0627287 0.0103234 0.031002 0 0 0 -2.75466e-05 5.19203e-06 9.32002e-06 3.60268e-05 2.37955e-06 -1.05907e-05 0.00106387 0.000437593 0.00172418 0.011 589.453 -2.90504 
234 1 0.088845 0.0102817 0.0207326 0 0 0 -2.11091e-05 -1.1644e-05 1.75241e-05 7.39004e-06 6.38904e-06 -2.33919e-05 0.00207053 -0.00314549 0.002263 0.011 589.341 -2.96872 
22 1 0.0674544 0.0308917 0.0259841 0 0 0 -5.16913e-06 9.02515e-06 7.78565e-06 8.88074e-06 2.90227e-06 5.03831e-06 -0.00239981 0.000357056 -0.00132014 0.011 589.472 -2.89206 
104 1 0.0246176 0.0349091 0.0292664 0 0 0 -6.09698e-06 -2.76752e-06 3.67224e-06 5.39063e-06 -1.28068e-06 1.21317e-05 -0.000608169 -0.000507064 0.000232214 0.011 590.785 -2.54874 
35 1 0.0463014 0.0343864 0.0280725 0 0 0 -2.76083e-06 9.13063e-06 9.48429e-06 1.18502e-05 -1.24386e-05 1.37353e-05 -0.00102766 -3.45179e-05 0.00175306 0.011 590.801 -2.54549 
147 1 0.0896087 0.0357645 0.027077 0 0 0 5.70743e-06 -4.91927e-05 7.04023e-05 4.42488e-07 1.58211e-05 -1.54639e-06 0.00403503 0.00619436 0.00289604 0.011 589.581 -2.84199 
8 1 0.0158776 0.0580097 0.0245506 0 0 0 -8.12906e-06 3.27659e-06 2.18385e-06 -1.23939e-05 -5.91202e-06 8.23365e-06 -0.000247511 -3.00716e-06 -0.000301503 0.011 591.201 -2.46088 
63 1 0.0362744 0.0531949 0.0311912 0 0 0 -1.2958e-05 2.29891e-06 1.1298e-06 2.36178e-06 -4.95787e-06 4.76018e-06 -0.000128745 7.90867e-05 -0.000169594 0.011 591.436 -2.35711 
99 1 0.0576214 0.0556961 0.0284725 0 0 0 -2.04241e-05 -1.71584e-05 1.94728e-06 -4.00161e-06 2.28997e-05 5.85288e-06 0.00132523 0.000962307 -0.00166765 0.011 591.943 -2.26176 
224 1 0.0872 0.0564711 0.0302932 0 0 0 -1.86475e-05 -5.89317e-05 6.00888e-05 -3.75761e-06 2.41622e-05 -1.54113e-05 -0.00592339 0.00979692 0.00505343 0.011 591.864 -2.28988 
126 1 0.0103591 0.0787914 0.0293282 0 0 0 -1.99604e-06 1.87564e-06 4.68955e-08 -3.60802e-06 -1.39767e-07 3.0643e-06 8.86212e-05 9.37543e-05 0.000111854 0.011 591.562 -2.29311 
163 1 0.0308218 0.0731115 0.0256591 0 0 0 -5.21463e-06 8.67489e-07 -7.66147e-07 -8.22563e-06 -5.85533e-06 4.31032e-06 -2.92206e-05 -7.5277e-05 -0.000252243 0.011 591.32 -2.3956 
12 1 0.0744997 0.0734406 0.0257564 0 0 0 -2.30397e-05 -3.50911e-05 2.36196e-05 -2.69626e-06 1.77406e-05 -6.59402e-06 -0.00161889 -0.0034367 -0.00520948 0.011 591.994 -2.2316 
257 1 0.053155 0.0892637 0.0262309 0 0 0 -1.86747e-06 -4.15562e-07 -7.10919e-07 -9.39552e-06 2.43296e-06 3.99527e-06 0.00019122 0.000344173 -0.000207568 0.011 591.946 -2.25474 
243 1 0.0892876 0.0891905 0.0286316 0 0 0 9.37899e-07 -1.71316e-05 8.89567e-06 -1.50916e-06 6.02088e-06 -8.96619e-07 -0.00138978 0.000373309 0.00147728 0.011 592.197 -2.13426 
223 1 0.0366962 0.0106919 0.0405206 0 0 0 -4.51903e-05 -1.26177e-05 -2.60768e-05 5.366e-05 1.0643e-05 3.263e-05 -0.00212065 0.000175299 0.00425692 0.011 590.862 -2.51395 
70 1 0.0104574 0.0206614 0.0372902 0 0 0 -4.2753e-06 -2.39465e-06 1.82228e-06 -6.6225e-07 1.6681e-06 6.03861e-06 -8.61093e-05 -0.00027153 -5.86206e-05 0.011 591.23 -2.34414 
45 1 0.0533435 0.0234862 0.0450373 0 0 0 -7.37525e-05 -2.1608e-05 2.98975e-05 5.74976e-05 1.06038e-05 1.09567e-05 0.0044531 -0.00799665 -0.00362595 0.011 590.053 -2.62959 
108 1 0.0809211 0.0194355 0.0384441 0 0 0 -4.45347e-05 -9.19704e-05 3.71324e-05 3.59715e-05 2.23238e-05 6.90098e-06 0.00831113 -0.00359003 -0.00924817 0.011 589.642 -2.82391 
96 1 0.0118124 0.0470096 0.0420235 0 0 0 -7.00054e-06 1.8868e-06 3.42247e-06 6.56787e-06 -2.1065e-06 1.96906e-05 0.000481766 0.000470692 -0.000308834 0.011 591.085 -2.4074 
9 1 0.0408215 0.0409412 0.0478628 0 0 0 -2.62294e-05 7.41797e-06 1.01226e-06 -2.62709e-07 -1.62268e-06 6.99928e-06 -4.66388e-05 -0.0013014 -0.000788745 0.011 593.721 -1.86992 
80 1 0.0755028 0.0427473 0.0417276 0 0 0 -4.56684e-05 -9.99954e-05 8.52607e-05 1.04432e-05 3.8875e-05 -1.10308e-05 0.00932321 -0.0142163 -0.0111509 0.011 590.205 -2.56916 
146 1 0.023489 0.0652287 0.0441922 0 0 0 -4.44386e-06 3.70124e-06 2.46266e-06 -5.39219e-06 1.85969e-06 6.18047e-06 -0.000389585 0.000166186 0.00018279 0.011 591.721 -2.21362 
182 1 0.0584023 0.0528217 0.0495929 0 0 0 -1.57376e-05 -2.81133e-05 1.40244e-05 -5.17029e-06 1.58254e-05 9.77002e-06 -0.000897812 0.000198032 -0.00340816 0.011 593.903 -1.81588 
240 1 0.0106827 0.0818065 0.0498456 0 0 0 -4.18697e-07 5.74888e-07 5.2173e-07 -4.22954e-06 9.4477e-07 2.11798e-06 8.54419e-05 1.62661e-05 -0.000151893 0.011 594.235 -1.72525 
204 1 0.0466075 0.073891 0.0406821 0 0 0 -9.07966e-06 -2.32491e-05 3.84885e-06 1.28145e-06 2.81003e-05 5.34139e-06 -0.00150435 -0.000365042 -0.0041505 0.011 591.45 -2.33871 
78 1 0.0692246 0.0708965 0.0483651 0 0 0 1.59058e-06 -2.6309e-05 -6.48746e-07 -1.48933e-05 1.88949e-05 1.08851e-05 0.000529049 0.000236165 0.00192834 0.011 594.229 -1.66668 
212 1 0.0899729 0.0687315 0.0468705 0 0 0 8.04963e-06 -8.75287e-07 1.8593e-06 -9.34902e-06 4.79039e-06 2.8692e-06 -0.00016227 -0.000561413 0.000571674 0.011 594.177 -1.69742 
32 1 0.0268325 0.0897765 0.037709 0 0 0 -8.97726e-08 2.12228e-07 -6.98058e-07 -4.47059e-06 -1.58355e-06 4.50076e-06 0.000148148 0.000375768 -0.000114589 0.011 591.665 -2.24035 
34 1 0.0702596 0.0898161 0.0390869 0 0 0 -3.96449e-06 -9.36409e-06 2.31698e-06 -3.42571e-06 6.45585e-06 -1.12535e-06 -0.000123104 -0.000677859 -0.000606202 0.011 592.283 -2.09518 
217 1 0.0892415 0.0898424 0.0494497 0 0 0 2.96214e-07 -1.87941e-06 3.1574e-06 -1.57691e-06 1.62558e-06 1.22076e-06 -0.000135219 0.000102703 0.000265856 0.011 594.117 -1.71313 
258 1 0.0129916 0.0100015 0.0550992 0 0 0 2.20787e-06 -2.0135e-06 2.27592e-06 1.19908e-05 -4.17171e-06 3.36914e-06 0.000215787 0.00107929 -0.000241219 0.011 593.991 -1.74396 
164 1 0.0340188 0.0103401 0.0619117 0 0 0 1.98199e-05 7.28655e-06 -1.52106e-05 -2.03551e-05 -8.20441e-06 2.16364e-05 -0.00110612 0.00577171 -0.00184496 0.011 594.068 -1.71349 
15 1 0.0686443 0.0109518 0.0545428 0 0 0 -6.31264e-05 -3.76321e-05 1.05263e-05 7.76877e-05 8.48736e-06 -1.48868e-05 -0.00139049 0.00575337 0.00350834 0.011 592.846 -2.0356 
64 1 0.0256322 0.0267075 0.0511047 0 0 0 -1.06348e-05 4.07805e-06 -2.49419e-06 5.17692e-06 -2.53208e-06 2.39053e-07 -3.1958e-05 0.00064224 0.00134024 0.011 594.022 -1.73792 
191 1 0.0895756 0.0318782 0.0533687 0 0 0 9.88484e-06 -0.000136266 5.18976e-05 -7.55195e-06 7.74797e-05 1.83224e-05 0.000840618 0.0248318 0.0259791 0.011 592.54 -2.17012 
199 1 0.0102991 0.0380886 0.0609946 0 0 0 -1.6932e-06 -3.83326e-06 2.54496e-06 3.19356e-06 -9.38509e-06 1.52492e-05 3.57765e-05 0.000235273 3.37463e-05 0.011 594.01 -1.7334 
123 1 0.065233 0.0343304 0.058576 0 0 0 -3.41922e-05 -6.97772e-05 3.21669e-05 1.88363e-05 4.54655e-05 1.45601e-05 -0.00193629 0.0131161 -0.00100786 0.011 592.643 -2.11117 
43 1 0.010601 0.0604897 0.0611534 0 0 0 -3.177e-06 -3.90038e-07 -2.53152e-08 -5.64301e-06 -6.27532e-06 2.91894e-06 0.00110223 -5.35242e-05 -0.000152309 0.011 594.664 -1.52741 
161 1 0.0394498 0.0598852 0.0574861 0 0 0 -8.53975e-06 -6.59636e-06 8.88113e-06 -1.03319e-05 1.08927e-06 7.75248e-06 0.00149175 -0.000715813 -0.000833874 0.011 594.462 -1.62509 
92 1 0.0894383 0.0558502 0.0648077 0 0 0 3.1978e-05 -2.73344e-05 -5.38577e-05 -1.59505e-05 1.87667e-05 3.48833e-05 0.0125424 -0.00398233 0.00618972 0.011 594.352 -1.60056 
54 1 0.0259865 0.0756811 0.0637092 0 0 0 1.22656e-06 -2.30223e-06 9.31874e-07 -1.56372e-05 -1.94374e-06 2.05042e-05 -0.0006626 0.000318696 -0.000405669 0.011 594.769 -1.48569 
185 1 0.0534575 0.0751308 0.0613724 0 0 0 3.02084e-07 -1.69187e-05 7.99534e-07 -1.89456e-05 3.94621e-06 2.29629e-05 -0.00135921 0.000327958 -0.00254649 0.011 594.351 -1.60991 
4 1 0.0399269 0.0897067 0.0543665 0 0 0 7.21646e-06 -2.08154e-06 -4.03803e-06 -1.70569e-05 -4.47575e-06 1.4149e-05 0.000315283 0.000130122 0.000567274 0.011 594.477 -1.61608 
103 1 0.0884931 0.016396 0.067597 0 0 0 0.0117378 7.08722e-05 0.00113051 -0.00177216 0.000337617 3.38005e-05 -0.277439 -2.02467 3.26455 0.011 592.977 -1.97168 
52 1 0.014078 0.0209839 0.0728805 0 0 0 2.39e-05 -4.64102e-06 1.75635e-06 -2.53833e-05 -9.12208e-06 3.89626e-06 3.40441e-05 0.00120629 0.000358913 0.011 594.258 -1.61933 
28 1 0.0400644 0.0320451 0.0674214 0 0 0 1.23345e-05 2.24843e-05 -6.94526e-06 -3.42617e-05 -3.48466e-05 -9.2072e-07 -0.000687906 0.00376524 0.00275729 0.011 594.199 -1.64614 
232 1 0.0333586 0.0175479 0.0819448 0 0 0 7.53922e-05 1.02274e-05 -1.17584e-05 -7.17813e-05 -2.21081e-07 2.17375e-05 0.00101511 -0.00013224 0.00269347 0.011 594.213 -1.63462 
153 1 0.0266105 0.0487986 0.0697434 0 0 0 -8.51262e-06 -8.2528e-07 1.40953e-07 3.17246e-06 2.66606e-06 2.32707e-05 -0.00104053 -0.000201456 0.000148053 0.011 594.35 -1.57801 
140 1 0.0580447 0.0362346 0.0784951 0 0 0 2.45075e-06 -6.20958e-05 5.20667e-05 -3.73112e-05 9.55952e-06 -6.78814e-06 0.00392825 -0.00941891 -0.0105121 0.011 593.249 -1.83994 
189 1 0.0810403 0.0375945 0.072335 0 0 0 2.96043e-05 3.98072e-05 -2.97511e-05 -1.1908e-05 6.20109e-06 6.21444e-05 -0.0236967 -0.0105428 -0.00810506 0.011 593.127 -1.89961 
200 1 0.0104473 0.0513288 0.0831916 0 0 0 7.93424e-07 8.71287e-07 -1.54118e-06 -2.57586e-06 -4.09285e-06 1.91059e-05 -0.0001262 0.000406822 0.000780126 0.011 594.746 -1.48428 
157 1 0.0560396 0.0559519 0.0707411 0 0 0 2.29588e-05 2.21506e-06 2.01668e-05 -6.26324e-05 -2.37982e-05 1.77518e-05 -0.00244833 0.00187822 0.00702751 0.011 594.367 -1.59918 
14 1 0.0104601 0.0722663 0.0801939 0 0 0 -1.25992e-06 -9.7943e-07 -5.52192e-07 -2.80446e-06 4.85824e-06 2.58e-05 0.00010609 9.61504e-05 -0.00035894 0.011 594.805 -1.45947 
69 1 0.0401967 0.0684184 0.0785522 0 0 0 -9.3917e-06 -1.21863e-05 -1.38392e-07 -4.62693e-06 2.12777e-05 3.66108e-05 -0.000468065 -0.00130492 -0.00208487 0.011 594.794 -1.4632 
85 1 0.0738096 0.0698974 0.0696544 0 0 0 -1.04216e-05 -5.25376e-05 -2.52512e-07 -1.35941e-07 2.31911e-05 -1.05617e-05 0.00101923 -0.00185656 -0.00490385 0.011 594.436 -1.55957 
209 1 0.0105736 0.0898516 0.0690394 0 0 0 7.60822e-07 2.96753e-08 1.11288e-07 -3.12068e-06 -2.35746e-06 2.78166e-06 3.18141e-05 -7.32015e-06 9.36094e-05 0.011 594.779 -1.47851 
127 1 0.0374783 0.0896609 0.0753378 0 0 0 4.19222e-06 -3.36891e-06 -3.80487e-06 -9.33094e-06 4.05279e-06 1.08506e-05 0.000148798 -0.000245367 0.000229813 0.011 594.771 -1.47713 
183 1 0.0653244 0.0896838 0.0712185 0 0 0 1.36157e-05 -1.55628e-05 -3.35343e-06 -1.88229e-05 3.66797e-06 1.78778e-05 0.000154048 -0.00145433 0.00107228 0.011 594.443 -1.55448 
194 1 0.0893172 0.0897645 0.0700221 0 0 0 -2.84279e-06 4.98143e-07 1.60465e-06 -1.63955e-06 -1.89557e-07 1.24595e-06 -0.000117718 -0.000298253 -0.000293634 0.011 594.421 -1.57081 
187 1 0.0105541 0.010344 0.0908399 0 0 0 1.22981e-05 3.04902e-07 -3.57269e-07 -1.86122e-05 -4.48107e-06 1.45996e-06 -0.000240058 -0.000296825 -0.000547504 0.011 594.3 -1.59087 
229 1 0.086844 0.00985433 0.0875497 0 0 0 0.00048782 3.22862e-05 0.000160876 -0.000230105 -6.32618e-06 -3.6369e-05 0.0163438 -0.109895 -0.0477427 0.011 593.128 -1.8912 
58 1 0.0107819 0.0316264 0.0910418 0 0 0 1.76757e-05 -1.89423e-06 2.51472e-06 -3.15984e-05 -1.35504e-05 -1.28204e-05 -6.81565e-05 -0.00128413 -0.00018751 0.011 594.333 -1.57581 
53 1 0.052831 0.0187589 0.0909073 0 0 0 0.000149572 -0.000172791 2.7353e-06 -9.80859e-05 9.40267e-05 1.68514e-05 -0.00914633 -0.00182995 -0.0264122 0.011 593.205 -1.8498 
167 1 0.0729658 0.0255413 0.0880411 0 0 0 0.000223387 -9.83208e-06 -9.1976e-05 -0.000121143 2.19954e-05 7.84035e-05 0.0220579 0.0129287 0.042349 0.011 593.072 -1.90394 
49 1 0.0307647 0.0381403 0.0876041 0 0 0 3.03569e-05 3.47952e-06 -6.10188e-06 -5.48969e-05 5.6027e-06 3.8197e-05 0.000882254 0.0037928 0.00197122 0.011 594.316 -1.58484 
39 1 0.0897517 0.037744 0.0918733 0 0 0 -9.18935e-06 0.000107258 -1.14104e-05 -2.97324e-06 -5.06114e-05 3.33476e-05 0.00917901 0.00107102 -0.00997572 0.011 593.248 -1.83327 
102 1 0.0284142 0.0591566 0.0943142 0 0 0 2.44075e-06 1.99454e-06 -5.98264e-06 -1.84794e-05 2.36715e-05 4.55926e-05 -0.000567422 0.00216396 0.00185793 0.011 594.792 -1.46531 
47 1 0.0478053 0.0509479 0.0901403 0 0 0 1.67328e-05 1.90513e-06 3.84218e-06 -5.02375e-05 -1.8209e-05 3.1041e-05 -0.000792626 -0.00391077 -0.0017398 0.011 594.647 -1.53214 
255 1 0.072471 0.0533009 0.0843177 0 0 0 3.4112e-05 3.64417e-05 -4.88419e-05 -6.45078e-05 -3.51572e-05 7.32724e-05 0.0184308 0.00199117 0.00611499 0.011 594.33 -1.61022 
260 1 0.0897783 0.05842 0.0958563 0 0 0 1.84605e-05 1.58314e-05 1.25447e-05 -1.57919e-05 -9.34373e-06 5.04408e-06 -0.00200894 -0.00166769 0.00198906 0.011 594.365 -1.59157 
93 1 0.0702566 0.072611 0.0941206 0 0 0 -8.68838e-07 -7.48456e-06 1.47975e-05 -1.40728e-05 -1.29743e-06 1.02559e-05 -0.00527839 0.000325195 -0.000301531 0.011 594.442 -1.55408 
133 1 0.0892945 0.0761731 0.0853082 0 0 0 -2.00297e-06 -3.46966e-06 1.95834e-07 -9.43809e-06 -4.31394e-06 2.71953e-06 0.000469401 -0.00011662 0.00134845 0.011 594.439 -1.55719 
256 1 0.0207013 0.0893776 0.0883456 0 0 0 2.96721e-06 -2.64436e-06 -2.06477e-06 -9.77403e-06 1.07468e-05 1.10215e-05 3.38495e-05 0.00038188 6.87408e-05 0.011 594.809 -1.45622 
6 1 0.0531532 0.0837563 0.0878195 0 0 0 3.51904e-06 -5.72121e-06 -6.29596e-06 -1.1455e-05 2.85863e-06 1.74348e-05 -0.001295 0.000777515 -0.0012415 0.011 594.483 -1.53518 
246 1 0.0105984 0.0104834 0.112179 0 0 0 6.65722e-06 6.33154e-06 -4.12534e-06 -8.76713e-06 -5.67095e-06 5.82507e-06 4.13345e-05 5.01806e-05 0.000499155 0.011 594.385 -1.57096 
149 1 0.029521 0.0106069 0.101694 0 0 0 3.52841e-05 -2.87008e-07 -1.45929e-05 -2.97234e-05 7.34496e-06 2.56349e-05 -0.00153187 -0.000727621 -0.00313384 0.011 594.3 -1.59177 
156 1 0.0493621 0.0107067 0.110754 0 0 0 1.50415e-06 -6.10222e-06 1.71296e-05 -1.44793e-05 8.7457e-06 6.10412e-06 -0.000542962 -0.00390621 -0.000654325 0.011 594.362 -1.58238 
91 1 0.0702352 0.0100948 0.101845 0 0 0 0.00016401 -5.12185e-05 -0.00012095 -9.21744e-05 2.34209e-05 8.07291e-05 -0.0145611 -0.0411771 -0.016998 0.011 593.263 -1.8251 
241 1 0.0900971 0.0104259 0.108621 0 0 0 -6.87035e-05 -6.48863e-05 0.000120402 1.31427e-05 2.63697e-05 -4.3304e-05 -0.00301314 0.021492 0.00624827 0.011 594.676 -1.53995 
139 1 0.0164452 0.0310481 0.111083 0 0 0 9.60503e-07 3.66593e-06 1.85369e-06 3.76005e-06 -3.01647e-06 -1.21996e-05 -0.000117244 -0.000310555 4.88736e-05 0.011 594.387 -1.57 
249 1 0.0399673 0.0294891 0.104756 0 0 0 7.16744e-05 4.07731e-06 -2.17172e-05 -7.56803e-05 1.60374e-06 3.876e-05 0.0021931 -0.00615497 0.0044785 0.011 594.255 -1.61109 
5 1 0.0298517 0.0496351 0.113926 0 0 0 6.48632e-07 2.52861e-06 -4.50335e-06 -1.88152e-05 -5.02805e-06 3.941e-05 0.00120859 -0.002158 -0.000429031 0.011 594.45 -1.54002 
148 1 0.0510925 0.0484015 0.111517 0 0 0 5.63883e-06 -4.40419e-07 -1.51588e-05 -1.58786e-05 1.30457e-06 3.16064e-05 0.00124755 0.00314976 -0.000715536 0.011 594.762 -1.50126 
122 1 0.0693587 0.0412455 0.102362 0 0 0 8.92456e-06 -7.93506e-05 4.57387e-06 -3.59034e-06 4.47593e-05 5.09949e-05 -0.0130656 -0.00220989 -0.00320248 0.011 593.262 -1.82279 
254 1 0.0886881 0.0446667 0.11189 0 0 0 1.89787e-05 -7.55865e-06 2.00687e-05 -9.15056e-06 8.81195e-06 1.5221e-05 0.00119445 -0.000970843 0.00318358 0.011 594.685 -1.53358 
251 1 0.0105114 0.0513841 0.105019 0 0 0 4.05888e-06 5.98483e-06 -9.75604e-06 -2.04555e-05 -2.07815e-05 4.92531e-05 -0.000424108 0.000894142 0.000519761 0.011 594.79 -1.46317 
23 1 0.0687606 0.0608118 0.111977 0 0 0 7.24432e-06 -2.2824e-06 -1.33506e-05 -1.17553e-05 1.09107e-05 4.10387e-05 0.00458766 0.000376265 0.00121989 0.011 594.417 -1.55675 
84 1 0.0135717 0.0732803 0.100602 0 0 0 -5.75285e-07 -1.89885e-06 2.13529e-07 -2.25743e-05 2.12969e-05 1.97113e-05 -0.000201064 -0.000178477 -0.00058109 0.011 594.675 -1.51492 
219 1 0.0316308 0.0712545 0.11252 0 0 0 1.60856e-07 2.23085e-07 -6.86867e-07 -1.75017e-05 -1.08842e-05 -7.12434e-07 -0.000737775 0.000401633 0.000131581 0.011 594.057 -1.63119 
59 1 0.0506533 0.068315 0.102673 0 0 0 -1.56599e-06 4.83514e-06 4.34054e-06 -8.84526e-06 -1.14164e-05 3.82251e-06 0.000332971 -0.000960383 0.000629418 0.011 594.45 -1.55052 
158 1 0.0876351 0.071154 0.112626 0 0 0 -3.72148e-06 5.67121e-06 2.83759e-06 2.22784e-06 5.86219e-07 6.06124e-06 0.00117071 0.000626909 0.000183182 0.011 594.406 -1.56212 
176 1 0.0106113 0.0894531 0.114738 0 0 0 1.01125e-06 -7.1828e-08 -3.94457e-07 -6.84231e-06 5.65765e-06 1.4936e-05 5.05089e-05 3.66244e-05 1.02895e-05 0.011 593.971 -1.67358 
128 1 0.0375959 0.0892798 0.102108 0 0 0 2.16384e-06 5.78404e-07 -3.8247e-06 -1.31071e-05 -6.34917e-06 5.12842e-06 0.000454103 -0.000611916 0.000338013 0.011 594.764 -1.47606 
37 1 0.063373 0.0898713 0.105254 0 0 0 4.1071e-06 -1.71103e-06 -9.58512e-06 -7.99108e-07 3.75134e-06 1.46728e-05 0.00125649 -0.000536176 0.00051604 0.011 594.423 -1.5621 
211 1 0.0861893 0.0895475 0.101444 0 0 0 -5.52975e-06 -5.49728e-07 3.62593e-06 -4.38096e-06 -1.82183e-06 2.18542e-06 -0.00054192 0.000442356 -0.000554212 0.011 594.441 -1.55426 
250 1 0.0102783 0.0141815 0.133063 0 0 0 -1.15151e-06 -3.40651e-07 -1.61485e-06 -3.22326e-06 1.36153e-06 3.59258e-06 0.000996808 -0.000319427 0.000209054 0.011 594.399 -1.56382 
87 1 0.0293524 0.0106178 0.123273 0 0 0 2.78522e-06 6.23484e-06 -2.66407e-06 -9.06508e-06 -5.65e-06 1.11632e-05 0.000302225 -0.000985099 -0.000135057 0.011 594.394 -1.56604 
48 1 0.0483698 0.0154427 0.131907 0 0 0 -1.24435e-05 -2.05275e-06 1.89742e-05 2.67212e-07 4.99773e-06 5.54621e-06 -0.000799624 -0.00166732 -0.00128821 0.011 594.453 -1.54025 
215 1 0.0672483 0.0102584 0.123149 0 0 0 -3.56266e-05 1.27763e-05 -3.14416e-05 1.11557e-05 -6.94648e-06 3.20416e-05 0.00310138 0.00945868 0.00183628 0.011 594.786 -1.4889 
242 1 0.0894654 0.0110426 0.129599 0 0 0 5.20992e-05 -1.15376e-05 5.13408e-05 -2.25445e-05 1.01816e-05 -2.12148e-05 -0.00238514 -0.00336085 0.00119797 0.011 594.922 -1.4278 
175 1 0.0589639 0.0291888 0.117541 0 0 0 -1.84959e-05 6.68905e-06 -1.06126e-05 4.46444e-06 2.16897e-06 3.65777e-05 -0.00318387 0.00133694 -0.00122847 0.011 594.862 -1.45632 
72 1 0.0799088 0.0263663 0.116907 0 0 0 -1.28601e-05 -2.18052e-05 4.19807e-05 3.19951e-07 1.21607e-05 2.63152e-06 -0.00630256 -0.00807473 -0.00405539 0.011 594.897 -1.44507 
82 1 0.0108143 0.0371686 0.130154 0 0 0 -1.24736e-06 1.01373e-06 -6.92655e-08 3.33554e-06 2.80241e-06 -4.51743e-06 0.000338732 3.83164e-05 -1.73781e-05 0.011 594.363 -1.58046 
227 1 0.0401913 0.0345459 0.12545 0 0 0 -8.49409e-06 7.50512e-07 -4.85126e-06 9.02638e-06 4.81677e-06 2.93346e-05 -0.000543059 0.000434355 0.0017527 0.011 594.425 -1.55327 
67 1 0.0717983 0.0446653 0.1256 0 0 0 -5.1182e-06 -3.31471e-06 -2.1868e-05 4.06194e-06 5.90227e-06 4.15923e-05 -0.00144817 -0.00258835 -0.00078679 0.011 594.893 -1.44116 
24 1 0.089571 0.0350321 0.133289 0 0 0 -1.60723e-05 3.74652e-06 1.36707e-05 1.0288e-05 9.37554e-07 2.78836e-06 -0.000696988 0.00208788 -0.000898625 0.011 594.932 -1.4209 
151 1 0.0511761 0.0661472 0.124505 0 0 0 -1.30178e-05 2.54748e-06 6.3481e-07 -3.72703e-05 3.37509e-05 -4.08043e-07 -0.000209143 -0.00022771 0.00593627 0.011 594.402 -1.56359 
205 1 0.0897512 0.0571853 0.128849 0 0 0 -1.68863e-06 2.15825e-06 7.66043e-06 2.74712e-06 9.572e-06 6.28737e-06 -0.0017534 0.00040197 -0.000234671 0.011 594.454 -1.54088 
66 1 0.0105903 0.0685174 0.120376 0 0 0 -6.80803e-07 4.04834e-07 -3.54733e-07 -4.96073e-06 4.77377e-06 9.29336e-06 2.47126e-05 0.000142199 9.33847e-06 0.011 594.009 -1.65612 
154 1 0.0700191 0.0798266 0.122023 0 0 0 -2.63984e-06 -1.68505e-06 1.25543e-07 9.32652e-06 1.31343e-05 9.07422e-06 -0.00161524 -0.000565633 4.21225e-05 0.011 594.408 -1.56063 
113 1 0.0279088 0.0892587 0.127593 0 0 0 2.22355e-06 9.84709e-07 1.07541e-06 -6.62424e-06 -7.69062e-07 -2.5276e-06 -0.000131903 -0.000221809 0.000131613 0.011 593.931 -1.69256 
57 1 0.0486661 0.0879567 0.121136 0 0 0 3.98567e-06 -9.41918e-06 -6.87994e-06 -1.10761e-05 1.03561e-06 4.17709e-06 0.00036948 0.000930022 -0.00120267 0.011 593.97 -1.67395 
226 1 0.0894243 0.0898458 0.122582 0 0 0 -1.52828e-06 1.5551e-06 2.97644e-06 4.09639e-06 5.41757e-07 2.19946e-06 -0.00027421 -9.15462e-05 -0.000122518 0.011 594.405 -1.56217 
115 1 0.0349098 0.00967738 0.147785 0 0 0 -8.11904e-06 1.24057e-06 7.64562e-06 -3.50278e-06 3.86016e-07 6.31732e-06 0.000639529 0.00103601 0.000679674 0.011 594.411 -1.55551 
137 1 0.0807299 0.0101881 0.14847 0 0 0 4.78102e-06 2.02814e-06 1.11874e-05 -6.79008e-06 3.94674e-06 -5.3683e-06 0.000427556 -0.0013888 -0.000279426 0.011 594.909 -1.43159 
134 1 0.0263022 0.0262738 0.139303 0 0 0 -6.34099e-06 -5.38216e-07 5.47171e-06 -4.25399e-06 2.61834e-06 7.00159e-06 -0.000855265 -0.000488285 -0.000437549 0.011 594.4 -1.56269 
129 1 0.0507487 0.0308356 0.146554 0 0 0 -6.95114e-06 -7.56302e-07 -6.87358e-07 -5.87326e-06 1.02887e-05 1.55611e-05 -0.000755317 0.00077529 -0.000381163 0.011 594.848 -1.45739 
75 1 0.0700298 0.0264402 0.137483 0 0 0 -5.27481e-06 -1.82738e-06 -1.24736e-06 -2.16655e-06 1.18481e-05 2.40565e-05 0.000665136 -0.000973663 0.00142367 0.011 594.932 -1.42059 
198 1 0.0289124 0.0475846 0.137643 0 0 0 -5.09291e-06 -1.19779e-06 -2.35831e-06 5.28732e-08 3.63382e-06 1.90336e-05 -0.000209558 0.000656423 -0.000330686 0.011 594.33 -1.59313 
244 1 0.0620008 0.0485663 0.144287 0 0 0 -5.4603e-06 -8.77707e-07 -1.24229e-05 -5.70686e-07 1.49133e-05 2.62934e-05 0.00130008 0.00177807 -0.000349071 0.011 594.858 -1.45583 
135 1 0.0847492 0.0491534 0.148405 0 0 0 -1.64259e-06 5.87843e-06 1.07003e-05 -7.9551e-06 2.65571e-06 -1.11848e-06 0.00035905 -0.000629463 0.000292053 0.011 594.874 -1.44772 
71 1 0.00991299 0.056703 0.137454 0 0 0 -9.27857e-07 8.44075e-07 7.25694e-07 -1.78189e-06 -9.10393e-07 4.86937e-06 -0.000175805 -7.23368e-05 -8.3759e-06 0.011 594.009 -1.65396 
10 1 0.0453634 0.0626076 0.145413 0 0 0 -2.19377e-06 -6.50375e-07 3.89078e-06 -9.6878e-06 6.20015e-06 6.12747e-06 -0.000485469 -0.000190417 -4.57112e-05 0.011 594.013 -1.65209 
17 1 0.0720907 0.0654356 0.136836 0 0 0 -4.91106e-06 6.21052e-06 1.60166e-06 5.51282e-06 7.07787e-06 9.13081e-06 0.000717843 -0.000247896 0.000167496 0.011 594.438 -1.54733 
29 1 0.010547 0.0805238 0.137846 0 0 0 4.10122e-07 5.08908e-07 -3.53068e-07 -3.27924e-06 -1.19003e-06 7.38716e-06 -2.49355e-05 9.39097e-06 4.8923e-05 0.011 593.938 -1.68771 
132 1 0.0280527 0.0685316 0.133565 0 0 0 5.35975e-07 7.13255e-07 -4.0757e-07 -5.05278e-06 1.1172e-06 8.47403e-06 0.000363064 -0.000223732 -0.000142663 0.011 593.965 -1.67518 
170 1 0.0351473 0.0822776 0.148395 0 0 0 4.68234e-06 -6.25869e-07 -1.68398e-06 -2.46335e-05 1.13522e-05 9.39848e-06 -0.00020372 0.000719384 8.1012e-05 0.011 593.938 -1.68955 
173 1 0.0556915 0.0812716 0.140677 0 0 0 3.79352e-06 -6.64566e-06 -3.91431e-06 -3.05439e-05 5.666e-06 1.15285e-05 -0.00108922 -0.000700015 -0.000216711 0.011 594.36 -1.58552 
50 1 0.079964 0.0848754 0.140415 0 0 0 -2.87295e-06 4.55495e-06 2.62899e-06 3.65322e-06 5.53625e-06 3.9816e-06 0.000154552 0.000236375 -0.000370731 0.011 594.401 -1.56444 
252 1 0.0113723 0.0114744 0.154227 0 0 0 -0.000359867 -0.000167223 -2.76927e-06 -1.13487e-05 9.50953e-06 3.8664e-06 -0.0195062 0.0510099 -0.65453 0.011 594.439 -1.54334 
101 1 0.0483179 0.0164208 0.161937 0 0 0 -2.82979e-06 2.19461e-06 1.27263e-06 -2.71213e-06 -1.30324e-06 6.91833e-06 0.000178703 1.54324e-05 8.42397e-05 0.011 594.538 -1.50225 
171 1 0.068159 0.0101683 0.164893 0 0 0 -2.81029e-06 1.93138e-06 1.45713e-06 -1.61458e-06 -2.72097e-06 1.24801e-06 -0.000101092 -0.000106307 -1.54299e-05 0.011 594.823 -1.46686 
248 1 0.0894611 0.028793 0.153384 0 0 0 9.61589e-07 2.6307e-06 8.91142e-06 -3.71804e-06 5.62674e-06 -8.75481e-07 -6.53719e-05 0.000181629 0.000179464 0.011 594.903 -1.43408 
136 1 0.0107576 0.0375698 0.151741 0 0 0 -2.79187e-07 -1.08486e-06 -9.016e-07 -1.55613e-06 -3.03097e-07 2.82615e-06 -0.000191392 6.28908e-05 -0.000118102 0.011 594.431 -1.54838 
193 1 0.0326594 0.0374633 0.156005 0 0 0 -2.65777e-06 2.77901e-06 5.58209e-07 -1.09824e-05 -2.93065e-06 1.3667e-05 2.02251e-05 6.71844e-05 -9.60007e-05 0.011 594.497 -1.52112 
179 1 0.0690767 0.0337246 0.15804 0 0 0 -4.99132e-06 4.62356e-07 -6.24445e-06 -3.37916e-06 1.12352e-05 2.24534e-05 -0.00134512 -0.000596743 -8.65188e-05 0.011 594.905 -1.43278 
74 1 0.0226519 0.0610596 0.153408 0 0 0 8.89819e-08 1.37362e-06 -5.39187e-07 -7.26282e-06 -1.8831e-06 1.18592e-05 -6.10788e-05 7.18623e-05 -6.16644e-05 0.011 594.056 -1.63302 
197 1 0.0658652 0.0673482 0.156421 0 0 0 -4.32422e-06 1.6993e-06 1.49072e-06 -3.32316e-06 2.25418e-06 3.564e-06 -0.000255434 6.8893e-05 0.000151808 0.011 594.368 -1.579 
76 1 0.0871349 0.0694824 0.153393 0 0 0 -4.18779e-06 3.15873e-06 4.90406e-06 -9.07564e-06 1.62826e-06 1.59932e-06 -0.000511528 -4.5528e-05 -0.000159807 0.011 594.404 -1.56326 
56 1 0.014163 0.0895892 0.156584 0 0 0 -2.15031e-07 3.78843e-07 -3.75986e-07 6.6414e-08 -4.33724e-07 4.33868e-06 3.38045e-05 -5.82891e-05 -1.75934e-06 0.011 594.016 -1.6515 
65 1 0.0463631 0.0894547 0.165194 0 0 0 2.00334e-06 1.13307e-06 -8.71031e-07 -1.38625e-05 1.70265e-06 4.84089e-06 0.000103068 -0.000816685 0.000157661 0.011 593.97 -1.67292 
119 1 0.0672239 0.0892553 0.157398 0 0 0 -1.59599e-06 1.81337e-06 3.92738e-07 -3.97619e-06 5.60773e-06 -4.22733e-06 5.36063e-05 -0.000190093 -5.18834e-05 0.011 594.367 -1.58088 
236 1 0.0897944 0.0897935 0.158445 0 0 0 -4.45851e-07 1.25497e-06 2.14507e-07 1.27365e-06 4.42146e-07 1.3799e-06 2.64279e-05 5.44916e-06 -9.78899e-05 0.011 594.361 -1.58344 
107 1 0.0115273 0.010675 0.175585 0 0 0 -2.13964e-05 -2.39647e-06 2.68584e-06 -1.74621e-06 8.24048e-07 2.57434e-06 -0.0002368 0.0042216 0.00165226 0.011 594.948 -1.42055 
81 1 0.0347405 0.0105194 0.177322 0 0 0 1.1087e-06 3.54101e-07 1.47353e-06 6.89979e-07 -1.00832e-06 5.55565e-06 7.29785e-05 0.00053585 2.16743e-05 0.011 594.939 -1.42489 
143 1 0.0894264 0.0122011 0.168141 0 0 0 -1.42954e-06 1.18332e-06 6.49408e-06 -1.30625e-06 -5.58058e-06 -1.67999e-06 -0.000480524 0.00041863 -0.000123415 0.011 594.538 -1.51493 
31 1 0.0404818 0.0312282 0.174775 0 0 0 -2.88294e-06 1.0416e-06 6.23064e-07 -1.59098e-06 -3.26546e-06 9.02281e-06 -4.58568e-05 -0.000113819 -1.38354e-05 0.011 594.87 -1.45365 
144 1 0.0608947 0.026175 0.176072 0 0 0 -3.19342e-06 4.61231e-06 -8.516e-07 1.1922e-06 -8.07399e-06 8.70266e-06 1.68419e-05 0.000419682 0.000414287 0.011 594.576 -1.50085 
131 1 0.0181096 0.0343131 0.17172 0 0 0 -1.75028e-06 1.26687e-06 -1.01482e-06 -6.07869e-06 2.15879e-06 1.05462e-05 1.97052e-05 -0.000161332 0.000122178 0.011 594.911 -1.43844 
38 1 0.052055 0.0478704 0.182608 0 0 0 -2.12841e-06 6.17311e-07 -1.79161e-07 5.13594e-06 -4.71829e-06 2.79214e-06 -3.20611e-05 3.73811e-05 -0.000158734 0.011 594.516 -1.52922 
55 1 0.0892417 0.0412926 0.170438 0 0 0 -2.18979e-07 1.92072e-06 2.8848e-06 4.85087e-07 1.35944e-06 -1.65704e-07 -0.000173747 1.30441e-05 5.95517e-05 0.011 594.487 -1.54093 
124 1 0.0106761 0.0599137 0.174834 0 0 0 -6.49314e-07 6.88443e-07 -3.58803e-07 -7.51125e-07 9.22277e-07 6.16841e-06 -0.000175283 4.17141e-05 5.52859e-05 0.011 594.714 -1.47711 
196 1 0.0303946 0.0519039 0.171181 0 0 0 -1.54058e-06 1.41159e-06 5.7685e-07 -2.51458e-06 -3.11393e-06 1.03813e-05 4.5613e-05 -9.29731e-05 -6.33872e-05 0.011 594.665 -1.49956 