ITEM: TIMESTEP
260000
ITEM: NUMBER OF ATOMS
1005
ITEM: BOX BOUNDS mm mm mm
0 0.1
0 0.1
0 1.1
ITEM: ATOMS id type x y z ix iy iz vx vy vz fx fy fz omegax omegay omegaz radius f_Temp[0] f_heatFlux[0] 
152 1 0.0254473 0.0104914 0.0102222 0 0 0 -6.99201e-08 -2.5855e-07 -6.84843e-07 -5.67408e-08 -7.81229e-08 -3.07864e-07 7.2951e-05 8.38208e-05 -0.000113649 0.011 590.72 -2.59464 
97 1 0.0100958 0.0228963 0.0166302 0 0 0 3.03564e-07 -7.00506e-08 3.94067e-07 1.20974e-07 -9.5312e-09 1.13841e-07 5.98737e-05 -4.84038e-05 1.44392e-05 0.011 590.765 -2.56261 
231 1 0.036031 0.0295069 0.0103009 0 0 0 4.66708e-06 5.15376e-07 3.27442e-07 1.88917e-06 7.20125e-08 1.13551e-07 -2.56233e-05 0.000403963 -0.000152072 0.011 590.732 -2.58621 
89 1 0.0620427 0.0171541 0.0104249 0 0 0 -3.78075e-06 3.16727e-06 3.54615e-06 -1.34723e-06 8.85904e-07 1.49397e-06 -0.000390688 -0.000313879 1.14794e-05 0.011 589.427 -2.92982 
216 1 0.0812386 0.0269581 0.00999395 0 0 0 -5.10417e-06 6.26459e-06 6.10995e-06 -1.67261e-06 1.92522e-06 2.5343e-06 -0.000435932 -0.000635846 0.00076974 0.011 589.361 -2.95804 
155 1 0.0150044 0.0423283 0.0103377 0 0 0 -3.04906e-07 2.06571e-07 4.30914e-07 1.98938e-07 5.20309e-08 3.39883e-08 -2.63234e-05 -2.49951e-05 7.4839e-05 0.011 590.771 -2.56696 
79 1 0.064454 0.0460881 0.0105442 0 0 0 -8.37146e-06 8.36541e-07 -7.35777e-07 -3.08022e-06 -2.45702e-07 -5.17522e-07 -0.000455832 -0.000375187 0.00140936 0.011 589.662 -2.8066 
180 1 0.0339234 0.0582288 0.0104701 0 0 0 -1.5745e-06 -3.99384e-07 3.52066e-07 5.9064e-08 -2.35578e-07 1.23475e-07 2.58764e-05 -0.00015217 -3.54518e-05 0.011 591.283 -2.4287 
33 1 0.0814217 0.0599294 0.0102587 0 0 0 -1.59244e-05 -1.95958e-05 1.06898e-05 -6.48161e-06 -7.99646e-06 4.248e-06 0.00154121 -0.00172606 -0.00295065 0.011 591.922 -2.27371 
2 1 0.0105506 0.0718177 0.00973622 0 0 0 -4.78382e-07 1.50012e-07 2.6143e-07 -5.42653e-08 5.87051e-08 3.42467e-08 -3.52458e-05 -4.60723e-05 -2.00585e-05 0.011 591.289 -2.4249 
30 1 0.0423263 0.0807626 0.00999999 0 0 0 -9.22836e-07 -2.73959e-07 1.58676e-07 -8.65192e-08 -1.24486e-07 4.21047e-09 3.57379e-05 -0.00010228 8.58578e-05 0.011 591.328 -2.40724 
253 1 0.0601208 0.0675848 0.0106239 0 0 0 -3.5209e-06 7.63659e-07 1.64982e-06 -1.51508e-06 -2.99854e-07 7.53653e-07 -6.89637e-05 -0.000126342 -0.00110265 0.011 591.936 -2.26728 
25 1 0.0890666 0.0801605 0.00996579 0 0 0 2.8474e-06 -1.10426e-05 7.07845e-06 1.12721e-06 -4.4309e-06 2.81023e-06 5.41713e-05 0.000580601 0.00133266 0.011 592.011 -2.22534 
233 1 0.0222916 0.0895167 0.0118684 0 0 0 -3.23234e-07 -1.04367e-07 -6.07452e-08 -7.79396e-08 -4.28343e-08 -2.11396e-08 4.77874e-06 5.5735e-05 -3.47379e-05 0.011 591.273 -2.43665 
192 1 0.0689577 0.0890031 0.0109507 0 0 0 -2.52237e-06 -5.60192e-06 1.71733e-06 -8.51865e-07 -2.38856e-06 7.1463e-07 0.000289849 -0.000365692 -0.000894989 0.011 591.998 -2.23515 
166 1 0.0440616 0.0107334 0.0202807 0 0 0 -4.63867e-06 -5.54096e-07 -4.628e-07 -1.82204e-06 -2.65161e-07 -1.58357e-07 0.000230318 -0.000500627 0.000412744 0.011 590.575 -2.66301 
203 1 0.0627322 0.0103224 0.0310002 0 0 0 -7.03355e-06 3.429e-06 5.3116e-06 -2.92064e-06 1.06215e-06 2.17027e-06 0.000334992 -9.71199e-05 0.000407041 0.011 589.464 -2.90211 
234 1 0.0888476 0.0102833 0.02073 0 0 0 -5.71894e-06 -2.23473e-06 6.80166e-06 -2.03169e-06 -1.15189e-06 2.63806e-06 0.00148287 -0.0020047 0.000637784 0.011 589.352 -2.96567 
22 1 0.0674541 0.0308906 0.025982 0 0 0 1.77498e-06 3.10119e-06 6.97189e-06 9.27025e-07 9.11774e-07 2.66585e-06 0.000542173 0.000910795 -0.000785722 0.011 589.483 -2.88919 
104 1 0.0246182 0.0349096 0.0292662 0 0 0 -2.47734e-06 -5.70656e-07 -5.67293e-07 -4.99394e-07 -6.99194e-07 -4.65697e-07 0.00014653 0.000342323 1.9386e-05 0.011 590.792 -2.54668 
35 1 0.0463013 0.0343852 0.0280707 0 0 0 -1.01643e-07 3.73811e-06 4.97273e-06 2.82041e-07 1.16129e-06 1.77292e-06 0.000126001 -0.000987481 0.000587971 0.011 590.808 -2.54353 
147 1 0.0896073 0.0357715 0.0270659 0 0 0 3.25987e-06 -1.27359e-05 2.33074e-05 1.47429e-06 -5.6401e-06 9.46103e-06 0.00409399 0.00262124 0.000448362 0.011 589.592 -2.83901 
8 1 0.0158782 0.0580096 0.0245503 0 0 0 -1.566e-06 4.19813e-08 7.06583e-07 8.87673e-08 -1.09175e-07 -1.28816e-08 2.77659e-05 -1.97976e-05 3.82066e-05 0.011 591.217 -2.45689 
63 1 0.0362761 0.0531949 0.0311908 0 0 0 -4.96698e-06 3.88279e-07 1.34656e-06 -1.44274e-06 -1.60808e-07 5.06095e-07 -7.33169e-05 -0.000135391 -8.54122e-05 0.011 591.451 -2.35373 
99 1 0.0576246 0.0556996 0.0284721 0 0 0 -9.04624e-06 -8.79656e-06 9.31836e-07 -3.01583e-06 -3.98231e-06 4.09721e-07 0.00126508 0.000454519 -0.000844247 0.011 591.956 -2.25863 
224 1 0.0872026 0.056481 0.030282 0 0 0 -5.49847e-06 -2.22894e-05 2.94235e-05 -1.90274e-06 -9.31843e-06 1.14526e-05 -0.00308572 0.00361491 0.00224844 0.011 591.875 -2.28742 
126 1 0.0103592 0.0787914 0.0293281 0 0 0 -2.97696e-07 2.62301e-07 3.47059e-07 1.23872e-07 -6.38398e-08 9.56144e-08 5.80112e-05 2.79894e-05 9.06151e-06 0.011 591.577 -2.28952 
163 1 0.0308223 0.0731116 0.0256592 0 0 0 -1.55539e-06 -2.03911e-07 -1.43859e-07 -9.91706e-08 -2.29318e-07 -7.55575e-08 -7.65338e-05 2.666e-05 -8.70642e-05 0.011 591.337 -2.39127 
12 1 0.0745033 0.0734469 0.025752 0 0 0 -7.72408e-06 -1.51432e-05 1.054e-05 -3.11492e-06 -6.36022e-06 4.34938e-06 -0.000491732 -0.00142777 -0.00206135 0.011 592.008 -2.22782 
257 1 0.0531554 0.089264 0.0262306 0 0 0 -1.16904e-06 -1.00436e-06 1.04104e-06 -3.33134e-07 -4.5941e-07 3.88834e-07 1.46889e-05 3.21279e-05 -0.000187457 0.011 591.96 -2.25081 
243 1 0.0892874 0.0891935 0.02863 0 0 0 7.14009e-07 -7.29334e-06 4.30795e-06 2.77868e-07 -2.90905e-06 1.62557e-06 -0.000600077 0.000184956 0.00064493 0.011 592.209 -2.13147 
223 1 0.0367022 0.010694 0.0405241 0 0 0 -1.25403e-05 -4.8671e-06 -7.05154e-06 -5.37582e-06 -2.03761e-06 -3.04634e-06 -0.000603016 0.000128612 0.00106574 0.011 590.869 -2.51225 
70 1 0.0104579 0.0206618 0.03729 0 0 0 -1.53919e-06 -9.00937e-07 5.86228e-07 -4.31661e-07 -4.46766e-07 1.67044e-07 -1.86341e-05 -0.000118682 -3.83905e-05 0.011 591.235 -2.34343 
45 1 0.053355 0.023489 0.0450329 0 0 0 -2.80551e-05 -4.19361e-06 9.45869e-06 -1.10597e-05 -2.07924e-06 3.78955e-06 0.00115137 -0.00260943 -0.000144344 0.011 590.062 -2.62743 
108 1 0.0809251 0.0194469 0.0384416 0 0 0 -3.12357e-06 -1.34935e-05 -4.06083e-06 -1.49947e-06 -6.81407e-06 -1.07488e-06 -0.000833156 0.000802412 -0.00270429 0.011 589.651 -2.8219 
96 1 0.0118128 0.0470099 0.0420232 0 0 0 -1.30017e-06 -1.0886e-06 1.01177e-06 -2.41015e-07 -7.66884e-07 -2.86868e-07 1.24091e-05 -7.19421e-05 0.000119601 0.011 591.092 -2.40561 
9 1 0.0408257 0.0409406 0.0478621 0 0 0 -1.16779e-05 1.2677e-06 3.03172e-06 -4.00062e-06 1.26223e-07 1.1781e-06 5.69758e-05 -0.000142296 -0.000691346 0.011 593.714 -1.87096 
80 1 0.0755094 0.0427634 0.04171 0 0 0 -1.51395e-05 -3.51056e-05 4.93486e-05 -5.75801e-06 -1.46321e-05 1.93038e-05 0.00177023 -0.00650237 -0.00293069 0.011 590.213 -2.56761 
146 1 0.0234894 0.0652285 0.0441917 0 0 0 -1.7072e-06 6.959e-07 1.27128e-06 -2.92573e-07 -8.37263e-08 3.51942e-07 -4.78114e-05 4.22562e-05 -4.4567e-05 0.011 591.734 -2.21107 
182 1 0.0584046 0.0528266 0.049591 0 0 0 -6.8012e-06 -1.16579e-05 3.72932e-06 -2.13421e-06 -4.72857e-06 1.45429e-06 -0.00137487 0.000146 -0.000970039 0.011 593.896 -1.81722 
240 1 0.0106825 0.0818066 0.0498454 0 0 0 5.93967e-07 7.85805e-08 4.72286e-07 4.74612e-07 -1.03528e-07 1.35408e-07 -3.30725e-05 -6.08303e-06 -7.76325e-05 0.011 594.227 -1.72644 
204 1 0.0466079 0.073894 0.0406818 0 0 0 -1.28109e-06 -7.54919e-06 8.71078e-07 2.85578e-07 -3.15698e-06 2.83416e-08 -0.000527034 -9.60887e-05 -0.00147772 0.011 591.466 -2.3345 
78 1 0.0692239 0.0709012 0.0483655 0 0 0 1.60087e-06 -1.18203e-05 -2.96297e-06 1.1818e-06 -4.83334e-06 -9.86627e-07 0.00113173 -0.000118009 0.000549603 0.011 594.22 -1.66867 
212 1 0.0899714 0.0687315 0.0468701 0 0 0 3.17575e-06 6.92559e-07 1.11636e-06 1.57738e-06 4.09783e-08 1.52144e-07 0.000260387 -0.000217341 0.000251888 0.011 594.169 -1.69907 
32 1 0.0268322 0.0897766 0.037709 0 0 0 9.87414e-07 -4.29163e-07 -2.90489e-07 6.30809e-07 -2.55752e-07 -2.04796e-07 9.55804e-05 0.000259814 -4.57103e-06 0.011 591.679 -2.23719 
34 1 0.07026 0.0898176 0.0390859 0 0 0 -7.01413e-07 -3.59812e-06 2.95892e-06 -1.81e-07 -1.54055e-06 1.22787e-06 -0.000304046 -0.000128038 -0.00016239 0.011 592.294 -2.09264 
217 1 0.0892414 0.0898426 0.049449 0 0 0 3.77677e-07 -1.47382e-07 2.06462e-06 1.67168e-07 -1.37732e-07 7.30421e-07 -0.000148084 2.17229e-05 5.78607e-05 0.011 594.109 -1.71448 
258 1 0.0129914 0.0100019 0.0550989 0 0 0 -4.44952e-07 -9.21074e-07 8.00949e-07 -3.60935e-07 -2.81447e-07 3.20372e-07 4.86035e-05 0.000229472 -1.37377e-06 0.011 593.982 -1.74623 
164 1 0.0340163 0.0103392 0.0619137 0 0 0 3.09699e-06 1.58548e-06 -3.69675e-06 1.62356e-06 6.38196e-07 -1.55285e-06 -0.000232827 0.00122726 -0.000329366 0.011 594.058 -1.71595 
15 1 0.0686514 0.0109555 0.0545407 0 0 0 -1.44943e-05 -9.90775e-07 7.39547e-06 -5.53144e-06 -1.24671e-06 2.75675e-06 0.000655886 0.000635654 0.00142325 0.011 592.844 -2.03611 
64 1 0.0256341 0.026707 0.0511047 0 0 0 -5.96366e-06 1.43705e-06 8.30835e-07 -2.07197e-06 3.56662e-07 5.00963e-07 0.000171129 0.000122023 0.000594442 0.011 594.013 -1.7401 
191 1 0.089572 0.0319048 0.0533608 0 0 0 1.03157e-05 -7.37913e-05 1.64333e-05 4.36697e-06 -2.9444e-05 6.54074e-06 0.0141474 0.00907002 0.0127845 0.011 592.539 -2.17039 
199 1 0.0102995 0.0380893 0.0609942 0 0 0 -1.5667e-06 -1.39428e-06 1.23173e-06 -4.842e-07 -3.88267e-07 9.2039e-08 -5.49653e-05 4.93175e-05 -0.000136391 0.011 594.001 -1.73566 
123 1 0.0652395 0.0343437 0.0585702 0 0 0 -1.90146e-05 -3.55927e-05 1.61911e-05 -7.12374e-06 -1.42208e-05 6.1007e-06 0.00135986 0.00419713 -0.00230273 0.011 592.645 -2.11014 
43 1 0.0106013 0.06049 0.0611532 0 0 0 -7.83762e-07 -3.25378e-07 3.24508e-07 -3.10049e-08 -9.11157e-08 1.03164e-07 0.000389873 -1.65765e-05 -5.0218e-05 0.011 594.653 -1.53033 
161 1 0.0394507 0.0598862 0.0574846 0 0 0 -2.83206e-06 -1.26071e-06 3.60872e-06 -5.80162e-07 -6.67757e-07 1.20922e-06 0.000341227 -0.000171299 -3.05758e-05 0.011 594.452 -1.6275 
92 1 0.0894351 0.0558641 0.0648147 0 0 0 3.2113e-06 -5.86867e-05 -1.84216e-05 1.90197e-06 -2.12512e-05 -6.31991e-06 0.00749377 -0.00143278 0.00707808 0.011 594.342 -1.60304 
54 1 0.0259858 0.0756817 0.063709 0 0 0 1.74538e-06 -1.0946e-06 3.58474e-07 1.20993e-06 -4.40909e-07 -2.78903e-07 -0.000266651 0.000181139 -0.00025743 0.011 594.757 -1.48897 
185 1 0.053456 0.0751336 0.0613726 0 0 0 6.25763e-06 -7.06882e-06 -1.40443e-06 2.87211e-06 -2.65938e-06 -7.59972e-07 -0.000560429 0.000612333 -0.00156503 0.011 594.341 -1.61238 
4 1 0.039925 0.089707 0.0543671 0 0 0 5.66028e-06 -2.45244e-07 -1.73684e-06 2.64666e-06 -1.87133e-08 -9.89988e-07 0.000108613 -2.96193e-06 0.000528168 0.011 594.467 -1.61845 
52 1 0.014075 0.0209844 0.0728803 0 0 0 4.38608e-06 -9.759e-07 1.11978e-06 2.16677e-06 -9.00513e-08 4.25783e-07 -9.46391e-06 0.000389288 0.000126894 0.011 594.247 -1.62212 
28 1 0.0400626 0.0320428 0.0674216 0 0 0 7.29722e-07 2.68364e-06 1.05301e-06 1.39871e-06 1.4787e-06 6.58649e-07 2.34314e-05 0.000956109 0.00041657 0.011 594.189 -1.64879 
232 1 0.0333494 0.0175471 0.0819464 0 0 0 1.4647e-05 1.24921e-06 -2.72801e-06 6.74243e-06 4.33461e-07 -1.15643e-06 0.000256436 -2.30007e-06 0.000428939 0.011 594.203 -1.63737 
103 1 0.0863708 0.0167325 0.0676123 0 0 0 0.00504569 -0.00173 -0.000632984 0.00201982 -0.000625505 -0.000210036 -0.13661 -0.971456 1.5279 0.011 592.974 -1.97248 
153 1 0.0266114 0.0487992 0.0697432 0 0 0 -2.48736e-06 -9.91465e-07 9.09505e-07 -7.41818e-07 -5.53105e-07 4.15479e-09 -0.000321078 -0.000183445 5.75229e-05 0.011 594.339 -1.581 
140 1 0.0580431 0.0362432 0.0784882 0 0 0 -6.06539e-07 -1.66212e-05 1.84359e-05 1.18272e-06 -6.26558e-06 7.10743e-06 -0.000737886 -0.00249713 -0.00281561 0.011 593.246 -1.84087 
189 1 0.0810336 0.0376023 0.0723358 0 0 0 1.5482e-05 -4.93419e-05 2.9381e-06 6.79641e-06 -1.80024e-05 5.97135e-07 -0.0127242 -0.00394222 -0.00671663 0.011 593.124 -1.90059 
200 1 0.0104471 0.0513287 0.0831919 0 0 0 -2.25853e-07 3.52427e-07 -6.63481e-07 1.48386e-08 2.23817e-07 -6.6718e-07 -0.000198738 0.000134192 0.000206808 0.011 594.734 -1.4876 
157 1 0.0560353 0.0559519 0.0707394 0 0 0 7.91133e-06 -1.10821e-06 4.72218e-07 4.3659e-06 6.48929e-08 3.44035e-08 -0.000189647 0.00103515 0.00151816 0.011 594.357 -1.60209 
14 1 0.0104601 0.0722666 0.0801945 0 0 0 1.32755e-07 -5.33273e-07 -1.13386e-06 1.89927e-07 -3.89617e-07 -1.26162e-06 0.000103625 0.000114704 -0.000172463 0.011 594.792 -1.46279 
69 1 0.0401964 0.06842 0.078552 0 0 0 1.93641e-06 -2.59894e-06 5.09166e-07 1.30014e-06 -1.27594e-06 -3.61626e-07 -0.000424617 -0.000300886 -0.000516016 0.011 594.782 -1.46669 
85 1 0.0738151 0.069912 0.0696527 0 0 0 -2.63445e-05 -5.46666e-05 5.45665e-06 -8.83724e-06 -1.95693e-05 3.03784e-06 0.000606566 -0.00296348 -0.00715559 0.011 594.425 -1.56251 
209 1 0.0105732 0.0898516 0.0690394 0 0 0 8.83237e-07 1.97653e-07 -3.22143e-08 4.8197e-07 1.30054e-07 -1.03111e-07 2.94218e-05 -3.91045e-06 7.74214e-05 0.011 594.767 -1.48179 
127 1 0.037477 0.0896615 0.0753386 0 0 0 3.72298e-06 -1.25632e-06 -2.27423e-06 1.83862e-06 -5.3537e-07 -1.0691e-06 0.000116369 1.34846e-05 0.000194838 0.011 594.758 -1.48048 
183 1 0.0653201 0.0896868 0.0712194 0 0 0 1.53329e-05 -9.59596e-06 -2.81088e-06 6.03104e-06 -3.36009e-06 -1.36362e-06 0.000212356 -0.000934976 0.00114345 0.011 594.433 -1.55742 
194 1 0.0893176 0.0897644 0.0700217 0 0 0 -8.19067e-07 5.36366e-07 6.53792e-07 -2.91124e-07 1.6775e-07 2.69579e-07 2.28562e-05 -9.14633e-05 -9.98729e-05 0.011 594.41 -1.57357 
187 1 0.0105524 0.0103439 0.0908399 0 0 0 2.79991e-06 7.66398e-08 4.452e-07 1.39063e-06 1.77278e-07 1.57315e-07 -1.04635e-05 -9.4772e-05 -0.000130944 0.011 594.29 -1.59319 
229 1 0.0867776 0.00985416 0.0875217 0 0 0 0.000127821 -7.76854e-06 5.00485e-05 5.32829e-05 -2.94422e-06 2.10848e-05 0.00220805 -0.025526 -0.0126 0.011 593.124 -1.89253 
58 1 0.0107793 0.0316266 0.0910411 0 0 0 4.10144e-06 -6.24412e-08 1.8114e-06 2.17439e-06 2.50612e-07 1.09786e-06 4.10833e-06 -0.000369199 -4.25827e-05 0.011 594.324 -1.57812 
53 1 0.0528133 0.0187811 0.0909081 0 0 0 2.95501e-05 -4.33918e-05 -2.23555e-06 1.29236e-05 -1.77428e-05 -1.18671e-06 -0.00210236 -0.000253612 -0.00606975 0.011 593.204 -1.85003 
167 1 0.07294 0.0255421 0.0880482 0 0 0 4.159e-05 -1.60627e-06 -8.30868e-06 1.82175e-05 -7.54378e-07 -4.31103e-06 0.00675861 0.0019536 0.00990977 0.011 593.07 -1.90469 
49 1 0.03076 0.0381401 0.0876049 0 0 0 7.6275e-06 1.38554e-06 -1.46281e-06 4.06031e-06 3.5114e-07 -1.05667e-06 0.00015187 0.00114442 0.000461493 0.011 594.305 -1.58777 
39 1 0.0897532 0.0377307 0.0918713 0 0 0 -4.21497e-06 2.29277e-05 8.39624e-06 -1.34322e-06 9.60441e-06 3.01957e-06 0.00117213 0.00123208 -0.002523 0.011 593.244 -1.83432 
102 1 0.0284127 0.0591564 0.0943155 0 0 0 3.2483e-06 1.66743e-06 -2.50379e-06 1.99818e-06 2.34491e-08 -1.74847e-06 0.00016775 0.000358117 0.000482017 0.011 594.78 -1.46835 
47 1 0.0478014 0.0509476 0.0901403 0 0 0 6.4994e-06 2.52247e-06 -1.84378e-06 3.76952e-06 1.1027e-06 -9.89467e-07 -4.74477e-05 -0.000873363 -0.000506152 0.011 594.636 -1.53491 
255 1 0.0724642 0.0532978 0.0843271 0 0 0 1.88715e-05 8.98347e-07 -2.77384e-05 8.17498e-06 1.02202e-06 -1.12857e-05 0.0065529 0.000210118 0.00300706 0.011 594.317 -1.6142 
260 1 0.0897755 0.0584181 0.0958549 0 0 0 5.50347e-06 2.50578e-06 6.3933e-07 2.44213e-06 1.08948e-06 5.0542e-07 -0.000869883 -0.000721855 0.000624094 0.011 594.357 -1.59324 
93 1 0.0702563 0.072613 0.094119 0 0 0 2.90182e-07 -7.25944e-06 1.53073e-06 4.91327e-07 -2.70768e-06 7.6533e-07 -0.0020887 0.000523659 -0.000378739 0.011 594.432 -1.55661 
133 1 0.0892947 0.0761739 0.0853086 0 0 0 -8.09775e-07 -3.47625e-06 -2.6722e-06 -1.24129e-07 -1.19835e-06 -8.38915e-07 0.000443868 -0.000389977 0.000778366 0.011 594.429 -1.5599 
256 1 0.0207005 0.0893783 0.088346 0 0 0 2.3133e-06 -1.38694e-06 -1.20046e-06 1.20228e-06 -8.91061e-07 -7.40846e-07 2.32682e-05 9.03336e-05 1.77007e-05 0.011 594.797 -1.45959 
6 1 0.0531517 0.0837576 0.0878208 0 0 0 4.86165e-06 -3.88099e-06 -4.77669e-06 2.29397e-06 -1.50634e-06 -1.85803e-06 -0.000823976 0.000300139 -0.000908581 0.011 594.473 -1.53803 
246 1 0.0105978 0.010483 0.11218 0 0 0 2.15298e-06 1.46223e-06 -3.41796e-07 7.06236e-07 4.35949e-07 -2.34535e-07 -2.35943e-05 7.13004e-05 7.14517e-05 0.011 594.391 -1.56974 
149 1 0.0295166 0.0106072 0.101696 0 0 0 7.38013e-06 -3.43927e-07 -3.21971e-06 3.29189e-06 -2.51399e-07 -1.57791e-06 -0.00038608 -0.00010351 -0.000667706 0.011 594.292 -1.5935 
156 1 0.049361 0.0107076 0.110753 0 0 0 2.07541e-06 -1.87414e-06 7.70915e-07 1.18725e-06 -8.14471e-07 2.22816e-07 -0.000358585 -0.000449948 -0.000238552 0.011 594.369 -1.58097 
91 1 0.0702196 0.0100985 0.101859 0 0 0 2.44585e-05 -5.78018e-06 -3.18846e-05 1.02929e-05 -2.31009e-06 -1.32174e-05 -0.00249852 -0.00481522 -0.00297935 0.011 593.262 -1.82518 
241 1 0.0901051 0.0104337 0.108608 0 0 0 -1.42458e-05 -1.1756e-05 2.04328e-05 -5.89572e-06 -5.04984e-06 8.58423e-06 -0.000832576 0.00342918 0.00101041 0.011 594.681 -1.53835 
139 1 0.0164451 0.0310478 0.111082 0 0 0 5.67032e-07 2.27007e-07 1.50369e-06 1.23544e-08 4.13062e-08 8.67685e-07 9.60157e-05 2.02673e-05 7.09713e-05 0.011 594.394 -1.56857 
249 1 0.0399574 0.029489 0.10476 0 0 0 1.85098e-05 3.24796e-07 -6.88988e-06 8.44473e-06 7.95233e-08 -2.97894e-06 0.00048395 -0.00128838 0.000709983 0.011 594.245 -1.6135 
5 1 0.029851 0.0496356 0.113928 0 0 0 1.80505e-06 -1.17005e-06 -3.61338e-06 1.12189e-06 -8.16793e-07 -2.1786e-06 0.000361151 -0.000557417 0.000159009 0.011 594.456 -1.53897 
148 1 0.0510912 0.0484009 0.111519 0 0 0 3.4004e-06 2.66463e-06 -4.91263e-06 1.67394e-06 9.38507e-07 -1.87694e-06 0.000215024 0.00069676 5.61782e-05 0.011 594.763 -1.50102 
122 1 0.0693588 0.0412551 0.102361 0 0 0 2.30512e-07 -2.17386e-05 5.49218e-06 1.94028e-07 -8.83435e-06 1.48256e-06 -0.00495733 -0.00037054 -0.0015944 0.011 593.255 -1.82571 
254 1 0.0886855 0.0446666 0.111887 0 0 0 5.44227e-06 1.84461e-06 7.23877e-06 2.29271e-06 5.42342e-07 2.84534e-06 0.00028672 -0.000581345 0.00106171 0.011 594.686 -1.53368 
251 1 0.0105105 0.0513839 0.105021 0 0 0 1.63849e-06 -1.95122e-08 -3.468e-06 1.07944e-06 1.6745e-09 -2.36597e-06 0.000252871 0.000331661 2.8927e-06 0.011 594.779 -1.46597 
23 1 0.0687593 0.0608118 0.111978 0 0 0 3.39507e-06 3.44478e-07 -4.14721e-06 1.54492e-06 -1.31476e-07 -1.85633e-06 0.00154727 5.92748e-05 0.000279399 0.011 594.42 -1.55675 
84 1 0.0135712 0.073281 0.100602 0 0 0 9.71044e-07 -8.92107e-07 -7.59069e-07 9.72419e-07 -1.01581e-06 -8.90107e-07 -0.000102907 -9.56697e-05 -7.49981e-05 0.011 594.667 -1.51662 
219 1 0.0316303 0.0712547 0.11252 0 0 0 1.26213e-06 -5.76366e-07 -1.72657e-06 7.94897e-07 -2.38954e-07 -6.34453e-07 -0.0001936 0.00011706 -0.000176291 0.011 594.065 -1.62967 
59 1 0.050653 0.0683143 0.102672 0 0 0 6.88902e-07 2.11043e-06 9.04515e-07 5.68243e-07 7.34441e-07 4.57653e-07 0.000177952 -0.000400574 0.000330096 0.011 594.442 -1.55235 
158 1 0.0876355 0.071153 0.112626 0 0 0 -9.77669e-07 1.93827e-06 -6.2395e-07 -3.73935e-07 7.47239e-07 -7.05675e-08 0.000381489 0.000462172 0.00013713 0.011 594.41 -1.56154 
176 1 0.0106112 0.0894532 0.114739 0 0 0 3.37269e-07 -6.88256e-08 -4.30754e-07 2.26483e-07 -1.66679e-07 -6.38725e-07 4.89966e-05 1.77408e-05 1.19971e-05 0.011 593.981 -1.67095 
128 1 0.0375949 0.0892796 0.102108 0 0 0 3.22967e-06 5.5627e-07 -2.44222e-06 1.57324e-06 1.86276e-07 -9.93394e-07 0.000274654 -0.000153202 0.000350036 0.011 594.752 -1.479 
37 1 0.0633719 0.0898717 0.105255 0 0 0 3.8675e-06 -1.60625e-06 -5.58762e-06 1.35563e-06 -6.97879e-07 -1.96391e-06 0.000588396 -0.00036961 0.000404627 0.011 594.415 -1.56387 
211 1 0.0861903 0.0895477 0.101444 0 0 0 -3.74795e-06 -1.38816e-06 4.04794e-07 -1.21987e-06 -4.74715e-07 2.10064e-07 -0.000260137 0.000409535 -0.000361434 0.011 594.432 -1.55625 
250 1 0.0102779 0.0141807 0.133064 0 0 0 -3.34015e-07 -9.43365e-07 1.07889e-06 1.90098e-07 2.11062e-07 -1.86665e-07 0.000443421 -0.00044679 -6.86871e-05 0.011 594.407 -1.56167 
87 1 0.0293519 0.010617 0.123274 0 0 0 1.84167e-06 9.5322e-07 -2.49166e-07 7.05385e-07 5.31256e-07 -4.53366e-07 0.000119802 -4.03221e-05 -8.89926e-05 0.011 594.401 -1.5643 
48 1 0.0483705 0.0154428 0.131905 0 0 0 1.25819e-07 -2.71626e-07 2.84729e-07 7.34011e-08 -1.46787e-07 1.59097e-07 7.32843e-06 -0.000121686 -4.74608e-05 0.011 594.46 -1.53839 
215 1 0.0672511 0.0102569 0.123152 0 0 0 -3.05307e-06 3.44998e-06 -8.52825e-06 -1.27197e-06 1.33671e-06 -3.52563e-06 0.00040974 0.00113539 0.000306006 0.011 594.788 -1.48825 
242 1 0.0894601 0.0110432 0.129593 0 0 0 7.70932e-06 -8.76895e-07 9.07309e-06 3.29539e-06 -3.17239e-07 3.84953e-06 -0.000249829 -0.000377223 0.000103201 0.011 594.925 -1.42699 
175 1 0.0589648 0.029188 0.117543 0 0 0 -2.89578e-07 2.23482e-06 -4.60604e-06 -2.90891e-08 8.05467e-07 -1.91373e-06 -0.000276916 0.00013636 -0.000146633 0.011 594.873 -1.45153 
72 1 0.0799096 0.0263685 0.116903 0 0 0 -2.48877e-08 -2.83682e-06 5.8683e-06 -3.57743e-08 -1.2528e-06 2.36324e-06 -0.000874179 -0.00134854 -0.000859453 0.011 594.9 -1.44404 
82 1 0.0108141 0.0371679 0.130155 0 0 0 -3.95898e-07 -6.50757e-07 7.73915e-07 -2.96904e-08 1.34196e-07 1.78129e-07 -4.27524e-05 -0.00013631 -9.78959e-05 0.011 594.371 -1.57817 
227 1 0.0401912 0.0345457 0.125452 0 0 0 -6.65194e-07 -8.5947e-07 -3.49177e-06 3.36177e-08 -1.65969e-07 -1.54219e-06 -8.89667e-05 -0.00012998 0.000311258 0.011 594.432 -1.55145 
67 1 0.0717984 0.0446658 0.125603 0 0 0 6.08332e-07 -7.72689e-07 -6.3375e-06 2.82128e-07 -4.18215e-07 -2.52957e-06 -0.000594654 -0.000502079 -0.00012722 0.011 594.895 -1.44025 
24 1 0.0895723 0.0350318 0.133287 0 0 0 -1.70797e-06 7.22563e-07 2.16363e-06 -6.88248e-07 1.73602e-07 8.98629e-07 -0.00018166 0.000262894 -0.000146674 0.011 594.935 -1.4202 
151 1 0.0511766 0.0661469 0.124505 0 0 0 -9.51195e-07 9.42371e-07 -1.02332e-07 7.20361e-07 -5.86786e-08 1.04346e-07 1.16502e-05 0.000113522 0.000981354 0.011 594.408 -1.56208 
205 1 0.0897515 0.0571844 0.128848 0 0 0 -4.87919e-07 2.89581e-06 2.36843e-06 -1.49578e-07 9.14722e-07 1.0644e-06 -0.000507608 0.000145931 -0.00034382 0.011 594.459 -1.53966 
66 1 0.0105903 0.0685173 0.120376 0 0 0 1.80867e-07 4.16696e-08 -5.76446e-07 1.28608e-07 -2.99221e-08 -4.58592e-07 1.54715e-06 4.35102e-05 -2.07914e-07 0.011 594.018 -1.6539 
154 1 0.0700194 0.0798268 0.122023 0 0 0 -3.97994e-07 -3.08446e-07 -8.38954e-07 -3.4239e-07 -3.89639e-07 -1.34116e-07 -0.000711401 -0.000363591 -3.78185e-06 0.011 594.412 -1.55982 
113 1 0.0279084 0.0892586 0.127593 0 0 0 1.24854e-06 1.53425e-07 -6.75117e-07 5.08205e-07 8.96519e-08 -3.30751e-07 1.15931e-05 4.4953e-05 6.9596e-05 0.011 593.943 -1.68941 
57 1 0.0486656 0.087958 0.121138 0 0 0 1.71941e-06 -3.88712e-06 -4.70839e-06 6.29085e-07 -9.96779e-07 -1.57341e-06 -0.000408717 0.000283732 -0.000327396 0.011 593.98 -1.67133 
226 1 0.0894245 0.0898455 0.122581 0 0 0 -2.41183e-07 4.37801e-07 3.88925e-07 -1.92762e-07 1.81504e-07 2.17272e-07 -6.84897e-05 -6.63833e-05 -2.60879e-05 0.011 594.409 -1.56119 
115 1 0.0349107 0.0096772 0.147785 0 0 0 7.45391e-07 2.20541e-07 -1.5335e-08 1.73155e-08 1.01914e-07 -3.08535e-07 -1.8288e-05 0.000185926 -5.62872e-05 0.011 594.419 -1.5534 
137 1 0.0807292 0.0101879 0.148469 0 0 0 1.27621e-06 2.78601e-07 2.36951e-06 5.80819e-07 2.35171e-08 9.90043e-07 9.83398e-05 -0.00025212 -8.27958e-05 0.011 594.911 -1.431 
134 1 0.0263021 0.0262732 0.139303 0 0 0 -8.96241e-08 -8.35009e-07 7.3786e-07 2.65322e-07 1.04833e-07 -4.98988e-07 -0.000250785 0.000379463 -2.34193e-05 0.011 594.408 -1.56055 
129 1 0.0507492 0.0308357 0.146554 0 0 0 6.98429e-07 -8.81184e-08 -1.67746e-06 2.77165e-07 -1.77659e-07 -6.36053e-07 -0.00017031 0.000199027 -5.36777e-05 0.011 594.851 -1.4564 
75 1 0.0700302 0.0264404 0.137483 0 0 0 2.82779e-08 1.2168e-07 -2.05942e-06 8.31172e-08 -2.14019e-07 -7.54245e-07 0.000336031 -0.000142961 0.00016588 0.011 594.935 -1.41992 
198 1 0.0289124 0.0475844 0.137643 0 0 0 -4.36052e-07 -7.82842e-07 -2.4338e-06 -2.23744e-08 -7.61633e-08 -1.10049e-06 -4.47678e-05 0.000301331 -6.07034e-05 0.011 594.339 -1.59082 
244 1 0.0620009 0.0485663 0.144288 0 0 0 1.10333e-06 3.82839e-07 -3.52016e-06 5.27443e-07 -3.5132e-08 -1.27746e-06 0.000437236 0.000417771 -0.000124984 0.011 594.86 -1.45489 
135 1 0.0847497 0.0491528 0.148403 0 0 0 -1.2283e-06 1.36303e-06 2.18331e-06 -4.5014e-07 3.67205e-07 9.19654e-07 0.000211153 -0.000185215 0.000147966 0.011 594.876 -1.44692 
71 1 0.00991303 0.0567028 0.137454 0 0 0 2.53067e-07 -8.84571e-08 -2.34312e-07 6.01252e-08 1.05446e-07 -1.85583e-07 -3.61727e-05 1.87309e-05 -2.8316e-05 0.011 594.02 -1.65122 
10 1 0.0453634 0.0626074 0.145413 0 0 0 7.30518e-07 2.07099e-07 3.07052e-07 3.45111e-07 2.17092e-07 3.7708e-08 -0.00013863 -0.000140608 0.000154005 0.011 594.023 -1.64955 
17 1 0.0720911 0.0654344 0.136836 0 0 0 -8.6996e-07 3.64072e-06 1.19429e-06 -2.04063e-07 1.14218e-06 6.16554e-07 0.000223414 -4.05252e-05 0.000314074 0.011 594.444 -1.54607 
29 1 0.0105469 0.0805237 0.137846 0 0 0 6.57447e-07 6.38212e-08 -4.52618e-07 2.7137e-07 1.67359e-07 -4.1241e-07 2.67105e-06 2.515e-05 1.56525e-05 0.011 593.949 -1.6847 
132 1 0.0280525 0.0685314 0.133565 0 0 0 1.01174e-06 -2.01684e-07 -1.34442e-06 3.60012e-07 6.67095e-10 -6.73293e-07 0.000114442 -2.83521e-05 -7.98277e-05 0.011 593.976 -1.67226 
170 1 0.035147 0.0822777 0.148395 0 0 0 8.73569e-07 -9.63844e-07 -4.43444e-07 2.46013e-07 -6.25116e-07 1.72247e-08 9.94557e-05 0.000206593 0.000302627 0.011 593.949 -1.68646 
173 1 0.0556911 0.0812715 0.140677 0 0 0 1.23399e-06 2.7726e-07 -1.61553e-06 6.40754e-07 6.89902e-07 -5.08465e-07 -0.000214377 -0.000187923 -0.00011985 0.011 594.366 -1.58374 
50 1 0.0799644 0.0848745 0.140414 0 0 0 -9.94336e-07 2.37697e-06 6.53371e-07 -4.16847e-07 7.4744e-07 3.30683e-07 5.33987e-05 0.000124548 -0.000287992 0.011 594.406 -1.56308 
252 1 0.0112022 0.0114125 0.154228 0 0 0 -0.000443538 -0.000124394 5.40918e-06 2.04798e-06 3.09112e-06 2.08063e-08 -0.0220219 0.0582605 -0.753586 0.011 594.446 -1.54165 
101 1 0.0483185 0.0164205 0.161937 0 0 0 7.07838e-07 5.06882e-07 -9.42062e-07 -5.54914e-08 2.31902e-07 -2.10063e-07 4.97432e-05 -0.000156724 -3.20759e-06 0.011 594.543 -1.50144 
171 1 0.0681594 0.0101681 0.164893 0 0 0 -1.31607e-07 4.08324e-07 4.86027e-07 -1.46239e-07 1.63055e-07 1.08289e-07 -2.77917e-05 -4.19491e-05 -2.34651e-05 0.011 594.825 -1.46639 
248 1 0.0894609 0.0287927 0.153383 0 0 0 5.61473e-07 5.06675e-07 1.52812e-06 2.64127e-07 4.74801e-08 6.81064e-07 -2.86114e-05 4.51098e-05 6.94788e-05 0.011 594.905 -1.43352 
136 1 0.0107573 0.0375701 0.151741 0 0 0 -4.23588e-07 8.25463e-07 -9.89548e-07 2.22801e-08 2.60921e-07 -1.22414e-07 -8.34336e-05 0.000125257 7.49108e-05 0.011 594.438 -1.54658 
193 1 0.0326596 0.037463 0.156005 0 0 0 1.47186e-06 5.16099e-07 -1.40838e-06 5.585e-07 2.37409e-07 -6.526e-07 1.13372e-05 -0.000107476 4.65171e-05 0.011 594.502 -1.52027 
179 1 0.0690772 0.0337247 0.15804 0 0 0 -3.88925e-08 -2.27895e-07 -2.43187e-06 5.7233e-09 -3.04592e-07 -8.5645e-07 -0.00034554 -0.000221194 -5.22711e-05 0.011 594.907 -1.43219 
74 1 0.0226519 0.0610594 0.153408 0 0 0 9.32905e-07 7.37777e-08 -9.82155e-07 3.47483e-07 8.57052e-08 -5.20929e-07 -3.88886e-05 3.6996e-06 3.10764e-07 0.011 594.065 -1.6313 
197 1 0.0658658 0.0673478 0.156421 0 0 0 -1.13822e-06 9.80253e-07 9.66282e-07 -4.00431e-07 3.93356e-07 4.97451e-07 -5.44147e-05 -1.70713e-05 4.3286e-05 0.011 594.371 -1.57866 
76 1 0.0871357 0.0694821 0.153392 0 0 0 -1.77019e-06 7.96873e-07 1.20507e-06 -5.82034e-07 1.97962e-07 5.36158e-07 -0.000171064 8.79939e-05 -9.73114e-05 0.011 594.409 -1.56231 
56 1 0.014163 0.0895892 0.156584 0 0 0 2.81623e-07 2.79318e-08 -2.63342e-07 8.8994e-08 2.39833e-08 -2.0224e-07 2.00162e-05 -4.08332e-05 3.35493e-05 0.011 594.025 -1.64958 
65 1 0.0463631 0.0894547 0.165194 0 0 0 2.85128e-08 1.25665e-07 -7.70247e-08 3.81365e-08 -2.84624e-08 3.27358e-08 1.75957e-06 -0.000155513 2.24579e-05 0.011 593.979 -1.67085 
119 1 0.0672241 0.0892549 0.157398 0 0 0 -3.58295e-07 1.11537e-06 2.15119e-07 -1.13523e-07 3.36446e-07 2.88814e-07 5.07751e-05 -9.9923e-05 1.25312e-05 0.011 594.372 -1.57975 
236 1 0.0897944 0.0897934 0.158445 0 0 0 -3.81816e-08 3.08993e-07 -9.8728e-08 -2.46043e-08 7.41104e-08 1.03786e-08 2.58199e-05 -3.35991e-05 -2.19041e-05 0.011 594.366 -1.58245 
107 1 0.0115166 0.0106739 0.175587 0 0 0 -2.79783e-05 -2.56278e-06 4.62754e-06 1.55485e-07 2.61384e-09 -1.43939e-07 -0.000133505 0.00551114 0.00216492 0.011 594.941 -1.42238 
81 1 0.0347419 0.0105195 0.177323 0 0 0 2.92647e-06 4.31884e-07 7.93031e-07 -1.3008e-07 5.08025e-08 -1.90295e-07 3.89448e-05 0.000656883 -0.0001144 0.011 594.931 -1.42669 
143 1 0.0894266 0.0122008 0.16814 0 0 0 -1.29819e-08 2.61557e-07 1.38395e-06 -5.29932e-08 2.45303e-07 5.395e-07 -0.000148561 8.57703e-05 -2.27727e-05 0.011 594.538 -1.51494 
31 1 0.0404823 0.0312281 0.174774 0 0 0 1.59424e-08 1.30856e-07 -8.63958e-07 -1.03447e-07 1.71931e-07 -2.78217e-07 1.48937e-05 -7.00541e-05 5.20909e-05 0.011 594.864 -1.45481 
144 1 0.0608953 0.0261746 0.176072 0 0 0 -9.8584e-08 1.37439e-06 -7.11359e-07 -2.50197e-07 4.24501e-07 -1.97501e-07 -4.80578e-05 0.000124579 0.000115682 0.011 594.575 -1.50091 
131 1 0.0181093 0.0343133 0.17172 0 0 0 -8.95583e-07 5.41215e-07 -2.39039e-06 1.19488e-07 1.05138e-09 -4.94072e-07 8.8215e-05 -0.000140606 -0.000156338 0.011 594.904 -1.44006 
38 1 0.0520553 0.0478705 0.182608 0 0 0 -5.37496e-07 1.62966e-07 4.10118e-08 -3.73771e-07 1.42213e-07 1.54416e-07 8.37641e-06 -3.18839e-05 -3.34413e-05 0.011 594.513 -1.53039 
55 1 0.0892417 0.0412923 0.170437 0 0 0 -6.39339e-08 4.42229e-07 5.03168e-07 -2.17573e-08 1.20194e-07 2.07979e-07 -3.25801e-05 -1.45485e-05 1.60315e-05 0.011 594.487 -1.54119 
124 1 0.0106762 0.0599137 0.174834 0 0 0 9.56353e-09 1.09188e-09 -4.90399e-07 -1.99246e-08 -1.9653e-08 -3.09026e-07 -0.000136019 4.61191e-05 -1.20647e-05 0.011 594.703 -1.48005 
196 1 0.0303948 0.0519037 0.171181 0 0 0 5.44715e-08 -1.45706e-07 -5.81126e-07 -1.00959e-09 9.10746e-08 -3.60273e-07 6.86807e-05 -4.46844e-05 1.03623e-05 0.011 594.657 -1.50138 