ITEM: TIMESTEP
180000
ITEM: NUMBER OF ATOMS
1005
ITEM: BOX BOUNDS mm mm mm
0 0.1
0 0.1
0 1.1
ITEM: ATOMS id type x y z ix iy iz vx vy vz fx fy fz omegax omegay omegaz radius f_Temp[0] f_heatFlux[0] 
152 1 0.025447 0.0104912 0.0102218 0 0 0 2.0248e-06 1.87034e-06 3.25462e-06 -8.46841e-07 1.65726e-07 -3.78652e-07 -0.000120457 -0.000243647 0.000159656 0.011 590.721 -2.59451 
97 1 0.0100959 0.0228962 0.0166303 0 0 0 -2.36777e-07 1.0856e-06 -5.19054e-07 -6.06218e-07 4.56861e-07 -2.01747e-07 -0.000153327 2.22062e-05 9.24192e-05 0.011 590.765 -2.56241 
231 1 0.036032 0.0295065 0.0103014 0 0 0 -4.32227e-06 4.52832e-06 -3.29369e-06 -5.13879e-06 2.3868e-06 -9.41166e-07 -0.000519092 -0.000269423 0.000412648 0.011 590.733 -2.58609 
89 1 0.0620409 0.0171547 0.0104263 0 0 0 1.17109e-05 -7.5558e-07 -9.35169e-06 -1.48052e-06 1.56885e-08 -5.40609e-07 7.40498e-05 0.000574747 0.00109084 0.011 589.407 -2.93489 
216 1 0.0812368 0.0269587 0.00999711 0 0 0 9.61177e-06 9.8603e-06 -2.74877e-05 -1.46551e-06 -6.96632e-07 -5.94409e-07 -0.00179431 0.00175152 0.000135868 0.011 589.341 -2.96369 
155 1 0.0150043 0.0423284 0.0103379 0 0 0 7.6195e-07 1.36211e-07 -1.1341e-06 -2.24733e-06 1.14137e-06 5.45419e-07 1.59961e-06 6.27378e-05 -0.00023281 0.011 590.771 -2.5668 
79 1 0.0644509 0.0460877 0.0105434 0 0 0 1.75116e-05 6.52425e-06 6.9941e-06 -1.90015e-06 1.3124e-06 -3.93976e-07 -7.50553e-05 0.000365356 -0.00314179 0.011 589.644 -2.81088 
180 1 0.0339227 0.0582287 0.0104702 0 0 0 2.034e-06 1.22317e-06 -6.52777e-07 -1.55644e-06 1.44084e-06 2.79114e-07 -8.66097e-05 0.000199182 8.60668e-05 0.011 591.281 -2.42921 
33 1 0.081415 0.0599217 0.0102629 0 0 0 4.36401e-05 4.5191e-05 -2.46042e-05 1.30988e-06 3.5057e-06 -1.81075e-06 -0.0035243 0.0046951 0.00645281 0.011 591.9 -2.28032 
2 1 0.0105505 0.0718177 0.0097363 0 0 0 6.97659e-07 -5.68686e-08 -4.52195e-07 -5.94908e-07 9.96664e-07 -3.3667e-07 3.65399e-05 6.86677e-05 2.69341e-05 0.011 591.287 -2.42536 
30 1 0.042326 0.0807625 0.01 0 0 0 1.38528e-06 4.47109e-07 -2.30266e-07 -1.38617e-06 5.66887e-07 4.35578e-08 -4.74621e-05 0.000132222 -0.000238461 0.011 591.325 -2.4084 
253 1 0.0601193 0.0675845 0.0106245 0 0 0 1.10725e-05 4.73472e-06 -2.70674e-06 -1.53269e-06 1.13308e-06 -8.53372e-07 -0.000331084 0.000591073 0.00152567 0.011 591.916 -2.27283 
25 1 0.0890675 0.0801561 0.00996857 0 0 0 -4.9004e-06 2.56025e-05 -1.62721e-05 -2.86004e-07 1.22416e-06 -1.15226e-06 -8.13734e-05 -0.00127042 -0.00268204 0.011 591.991 -2.23084 
233 1 0.0222915 0.0895166 0.0118684 0 0 0 5.45183e-07 3.22004e-07 -4.07616e-08 -6.9943e-07 5.77047e-07 -7.82633e-07 6.04544e-06 -7.67894e-05 6.60873e-05 0.011 591.271 -2.43715 
192 1 0.0689572 0.0890007 0.0109515 0 0 0 2.41527e-06 1.4143e-05 -4.27645e-06 -1.15143e-06 -1.74205e-06 -1.3914e-07 -0.00104838 0.000659463 0.00274766 0.011 591.978 -2.24081 
166 1 0.0440592 0.010733 0.0202803 0 0 0 1.56344e-05 2.38976e-06 1.16679e-06 -1.54115e-06 -1.22551e-06 -2.05165e-06 -0.000580917 0.00159018 -0.00100388 0.011 590.573 -2.66401 
203 1 0.0627287 0.0103234 0.031002 0 0 0 1.96e-05 -2.88088e-06 -7.3362e-06 -7.68752e-06 9.7753e-07 1.09375e-06 -0.00098091 -0.00122535 -0.00104917 0.011 589.445 -2.90698 
234 1 0.088845 0.0102818 0.0207325 0 0 0 1.46126e-05 1.21157e-05 -1.4046e-05 -6.72314e-06 3.48129e-07 4.77659e-06 -0.00150629 0.00105456 -0.00164477 0.011 589.332 -2.97127 
22 1 0.0674542 0.0308917 0.0259838 0 0 0 -1.42849e-06 -5.48307e-06 -1.07664e-05 -7.20039e-06 2.95117e-06 -1.31686e-06 0.0023161 -0.000453093 0.000986788 0.011 589.464 -2.89405 
104 1 0.0246176 0.034909 0.0292664 0 0 0 1.42962e-06 5.2254e-06 -2.55684e-06 -5.97078e-06 3.30868e-06 5.25226e-08 0.000358698 0.000212874 -1.9616e-05 0.011 590.793 -2.54661 
35 1 0.0463014 0.0343864 0.0280724 0 0 0 -2.36198e-06 -3.88692e-06 -8.82023e-06 -7.48848e-06 4.85501e-06 -1.73769e-06 0.000634666 0.000400666 -0.00152413 0.011 590.806 -2.54444 
147 1 0.0896085 0.0357649 0.0270762 0 0 0 -9.71415e-06 5.08807e-05 -7.43194e-05 -3.6131e-06 1.74239e-06 -5.42344e-06 -0.0033066 -0.00659147 -0.00309452 0.011 589.572 -2.84431 
8 1 0.0158776 0.0580097 0.0245506 0 0 0 2.66178e-06 6.23779e-08 -1.60563e-06 -4.3982e-06 2.84312e-06 4.81659e-07 2.94615e-05 -5.89868e-06 5.2846e-05 0.011 591.216 -2.45717 
63 1 0.0362744 0.053195 0.0311911 0 0 0 6.80899e-06 1.11612e-06 -2.26645e-06 -4.89521e-06 2.77561e-06 7.22027e-07 7.06308e-05 0.000197378 0.000161107 0.011 591.448 -2.35453 
99 1 0.0576214 0.0556962 0.0284725 0 0 0 1.46142e-05 1.94877e-05 -1.99479e-06 -3.1776e-06 2.89239e-06 -6.36584e-07 -0.00115497 -0.00126849 0.00148872 0.011 591.939 -2.26269 
224 1 0.0872001 0.0564715 0.0302929 0 0 0 1.61233e-05 5.94379e-05 -5.92152e-05 -1.55095e-06 3.40946e-06 -5.08001e-06 0.00577721 -0.010145 -0.00538901 0.011 591.859 -2.29111 
126 1 0.0103591 0.0787915 0.0293282 0 0 0 3.117e-07 1.10896e-07 -6.50251e-07 -1.09868e-06 1.40063e-06 -2.48125e-07 -9.64886e-05 -3.82013e-05 2.75741e-05 0.011 591.575 -2.29 
163 1 0.0308218 0.0731116 0.0256591 0 0 0 1.82343e-06 1.24655e-06 -1.19264e-07 -2.35998e-06 1.84927e-06 -3.13719e-07 0.000101593 -1.7499e-05 0.00012507 0.011 591.335 -2.39179 
12 1 0.0744999 0.0734408 0.0257563 0 0 0 2.4034e-05 3.60067e-05 -2.55259e-05 3.88093e-07 2.24478e-06 -1.54166e-06 0.00162282 0.00329697 0.00529949 0.011 591.988 -2.23323 
257 1 0.053155 0.0892637 0.0262309 0 0 0 1.86333e-06 1.49809e-06 -8.65099e-07 -1.44814e-06 4.85494e-07 4.03392e-07 -8.48589e-05 -0.000105045 0.000292463 0.011 591.942 -2.25557 
243 1 0.0892876 0.0891906 0.0286316 0 0 0 -1.15334e-06 1.69597e-05 -8.96349e-06 -6.43659e-07 8.57584e-07 -7.02765e-07 0.00139419 -0.000386328 -0.00148647 0.011 592.193 -2.13529 
223 1 0.0366961 0.0106919 0.0405205 0 0 0 3.40554e-05 1.14888e-05 1.96488e-05 -8.24686e-06 4.49624e-08 -2.29564e-06 0.00165393 -0.000629406 -0.00301033 0.011 590.868 -2.51288 
70 1 0.0104574 0.0206614 0.0372903 0 0 0 2.69421e-06 2.5569e-06 -1.62391e-06 -1.57746e-06 7.88592e-07 -3.88761e-07 8.56991e-05 0.000224231 0.000144376 0.011 591.235 -2.34349 
45 1 0.0533436 0.0234862 0.0450373 0 0 0 5.9837e-05 2.01176e-05 -2.7071e-05 -7.83877e-06 1.34738e-06 -4.37529e-06 -0.00356326 0.00728455 0.00229323 0.011 590.048 -2.63047 
108 1 0.0809213 0.0194365 0.0384433 0 0 0 3.54965e-05 9.9599e-05 -4.42339e-05 -1.10541e-05 5.62588e-06 2.67742e-06 -0.00987292 0.00505346 0.00840155 0.011 589.634 -2.82596 
96 1 0.0118123 0.0470096 0.0420235 0 0 0 1.39543e-06 1.62897e-06 -2.45256e-06 -5.1196e-06 4.14128e-06 1.06085e-06 -0.000190302 -0.000197035 0.000112722 0.011 591.092 -2.40573 
9 1 0.0408215 0.0409414 0.0478627 0 0 0 1.89401e-05 -1.91142e-06 -2.58478e-06 -2.10245e-06 2.04351e-06 -2.22682e-07 -3.09079e-05 0.000774541 0.00101178 0.011 593.711 -1.87172 
80 1 0.0755025 0.042748 0.0417267 0 0 0 3.53639e-05 0.000101412 -8.89539e-05 -3.48903e-07 6.16317e-06 -9.78163e-06 -0.00923962 0.0138855 0.0115028 0.011 590.199 -2.57022 
146 1 0.023489 0.0652288 0.0441922 0 0 0 8.26505e-07 -1.20289e-07 -2.6026e-06 -2.3873e-06 2.37522e-06 -4.82528e-08 0.000165092 -0.000137673 -0.000126785 0.011 591.733 -2.21136 
182 1 0.0584021 0.0528218 0.0495929 0 0 0 8.33399e-06 2.64604e-05 -1.22432e-05 -1.52507e-06 1.93566e-06 -1.16964e-06 0.00104621 7.83717e-05 0.00242484 0.011 593.909 -1.81499 
240 1 0.0106827 0.0818065 0.0498456 0 0 0 -1.03039e-06 1.01894e-06 -1.13807e-06 -9.4356e-07 1.14448e-06 -1.7595e-07 4.766e-06 2.62466e-05 0.000185602 0.011 594.226 -1.72687 
204 1 0.0466074 0.0738909 0.0406821 0 0 0 1.48725e-06 1.42661e-05 -1.58031e-06 -1.37684e-06 1.39619e-06 -8.13969e-07 0.000559654 0.000121063 0.00216465 0.011 591.465 -2.33482 
78 1 0.0692245 0.0708965 0.0483652 0 0 0 -3.67735e-06 2.31054e-05 -1.8387e-06 -3.07197e-07 1.0617e-06 1.56669e-06 -0.000733243 -0.000308449 -0.00135767 0.011 594.238 -1.66461 
212 1 0.0899728 0.0687315 0.0468706 0 0 0 -9.1761e-06 1.99908e-06 -2.12787e-06 -7.49261e-07 -2.39821e-07 7.14261e-08 0.000154613 0.000538333 -0.000723349 0.011 594.186 -1.69534 
32 1 0.0268325 0.0897765 0.037709 0 0 0 -1.14097e-06 1.06433e-06 2.37534e-07 -1.08392e-06 1.09391e-06 -1.13441e-07 -0.000104429 -0.000319769 -2.39532e-05 0.011 591.677 -2.23762 
34 1 0.0702596 0.0898161 0.0390869 0 0 0 2.50144e-06 8.74374e-06 -4.13948e-06 -5.6405e-07 1.87786e-07 -1.5109e-07 0.000329148 0.000393133 0.00045857 0.011 592.279 -2.09588 
217 1 0.0892415 0.0898424 0.0494497 0 0 0 -4.43619e-07 1.95526e-06 -3.33706e-06 -1.0986e-07 7.10938e-08 -4.49011e-07 9.75466e-05 -3.50168e-05 -0.000208369 0.011 594.125 -1.71123 
258 1 0.0129918 0.0100015 0.0550992 0 0 0 -1.03068e-06 2.09077e-06 -2.0929e-06 -3.15754e-06 3.26947e-07 -7.24696e-07 -0.000163263 -0.000682521 0.000163232 0.011 593.978 -1.74721 
164 1 0.0340193 0.0103402 0.0619115 0 0 0 -1.48743e-05 -4.80273e-06 1.10697e-05 -5.4298e-06 -2.23057e-07 -4.21145e-07 0.000806372 -0.00394763 0.00133638 0.011 594.054 -1.71696 
15 1 0.0686443 0.0109521 0.0545428 0 0 0 4.15308e-05 3.94856e-05 -5.66105e-06 -2.3114e-05 1.28268e-06 3.44845e-06 0.00207789 -0.00798049 -0.00118695 0.011 592.855 -2.03302 
64 1 0.0256324 0.0267076 0.0511045 0 0 0 8.2156e-06 -2.04127e-06 7.15822e-07 -3.00187e-06 4.68711e-07 1.24309e-06 -0.000100622 -0.000487349 -0.00111267 0.011 594.009 -1.74116 
191 1 0.0895753 0.0318791 0.0533673 0 0 0 -1.74029e-05 0.000128809 -6.41786e-05 -4.07016e-06 1.14642e-05 -6.34316e-06 0.00227678 -0.0265844 -0.0257269 0.011 592.547 -2.16874 
199 1 0.0102991 0.0380886 0.0609945 0 0 0 6.00824e-07 3.98516e-06 -2.6437e-06 -1.1856e-06 1.46773e-06 -8.2328e-08 -4.20591e-05 -8.32217e-05 0.000228316 0.011 593.997 -1.73663 
123 1 0.0652333 0.0343307 0.0585758 0 0 0 2.99785e-05 6.50155e-05 -2.81517e-05 -2.12949e-06 2.00244e-06 -4.49129e-06 0.00181832 -0.0109001 0.00289135 0.011 592.651 -2.10966 
43 1 0.010601 0.0604898 0.0611534 0 0 0 8.21576e-07 2.44912e-06 -1.04695e-06 -1.00643e-06 1.02312e-06 -6.73412e-08 -0.000748945 0.000112669 0.000274915 0.011 594.651 -1.53081 
161 1 0.0394497 0.0598851 0.0574862 0 0 0 3.46702e-06 7.30939e-06 -7.55462e-06 -2.0801e-06 1.88674e-06 -8.66288e-07 -0.000943186 0.000607589 0.000586224 0.011 594.453 -1.62668 
92 1 0.0894391 0.0558511 0.0648063 0 0 0 -2.08905e-05 2.77904e-05 2.2582e-05 -3.70397e-06 7.2634e-06 4.27309e-06 -0.00750005 0.0014693 -0.00478346 0.011 594.363 -1.59762 
54 1 0.0259865 0.0756811 0.0637092 0 0 0 -3.57702e-06 3.76497e-06 -1.54991e-06 -1.3919e-06 1.21208e-06 -9.38003e-08 0.000457991 -0.0003283 0.000279921 0.011 594.755 -1.48914 
185 1 0.0534573 0.0751307 0.0613725 0 0 0 -2.96289e-06 1.39394e-05 -1.92632e-06 -1.48753e-06 8.62882e-07 1.17497e-07 0.00106347 -4.48737e-05 0.00197128 0.011 594.358 -1.60838 
4 1 0.0399269 0.0897067 0.0543665 0 0 0 -6.94164e-06 2.28654e-06 2.99046e-06 -9.01051e-07 2.21351e-07 -1.30988e-07 -0.000232387 -0.000120299 -0.000515492 0.011 594.467 -1.61782 
103 1 0.0884068 0.016401 0.0675911 0 0 0 -0.0124402 5.6533e-05 -0.00113686 -0.00130947 0.000337166 9.3002e-05 0.299458 2.2353 -3.54286 0.011 592.985 -1.96944 
52 1 0.0140786 0.0209838 0.0728805 0 0 0 -1.70049e-05 2.86124e-06 -1.70674e-06 -4.31388e-06 -1.86294e-07 -1.08729e-06 9.0351e-05 -0.00116609 -0.000310077 0.011 594.243 -1.62317 
28 1 0.0400647 0.0320456 0.0674212 0 0 0 -1.37644e-05 -1.34502e-05 1.86588e-06 -3.7788e-06 -1.19936e-06 -8.82791e-07 0.000645066 -0.00294214 -0.00185457 0.011 594.185 -1.64948 
232 1 0.0333601 0.0175481 0.0819447 0 0 0 -4.91549e-05 -4.32246e-06 8.2331e-06 -5.50324e-06 -5.7163e-07 -9.43177e-07 -0.00100786 0.00055431 -0.0015154 0.011 594.2 -1.63791 
153 1 0.0266104 0.0487986 0.0697433 0 0 0 2.99567e-06 3.4372e-06 -1.67789e-06 -1.03804e-06 1.57293e-06 -4.13733e-08 0.000739338 6.18214e-05 -0.000313877 0.011 594.336 -1.58177 
140 1 0.0580442 0.036234 0.0784962 0 0 0 -2.39111e-05 4.77126e-05 -2.40326e-05 -4.45081e-06 1.45992e-06 -4.29884e-06 -0.00384652 0.00471565 0.00697016 0.011 593.256 -1.83865 
189 1 0.0810397 0.037597 0.072333 0 0 0 -4.33935e-05 -2.54448e-06 -6.37534e-06 -6.26819e-06 2.44852e-06 -3.78207e-06 0.0167268 0.00962635 0.00275425 0.011 593.136 -1.89704 
200 1 0.0104473 0.0513288 0.0831916 0 0 0 -1.41085e-06 -4.80557e-07 1.42375e-06 -1.02752e-06 3.58637e-08 -7.69475e-08 0.000748819 -0.000156505 -0.00056483 0.011 594.732 -1.4881 
157 1 0.05604 0.0559521 0.0707415 0 0 0 -2.27969e-05 -6.32427e-07 -1.41881e-05 -5.88719e-06 -2.66516e-06 -1.69766e-06 0.00175893 -0.00199867 -0.00520195 0.011 594.375 -1.59793 
14 1 0.0104601 0.0722663 0.0801939 0 0 0 -5.28743e-07 1.84528e-06 3.25049e-06 -5.02891e-07 2.42085e-07 -9.39318e-09 -0.000460912 -0.000415167 0.000354697 0.011 594.791 -1.46314 
69 1 0.0401965 0.0684183 0.0785521 0 0 0 -8.43499e-07 1.0051e-05 -1.65941e-06 -1.66454e-06 9.48109e-07 8.90551e-08 0.000514189 0.000833121 0.00129248 0.011 594.782 -1.46641 
85 1 0.0738101 0.0698977 0.0696544 0 0 0 2.27774e-06 3.49347e-05 -6.59288e-06 -9.85197e-07 5.11418e-06 2.29404e-06 0.000669324 0.00104525 0.00395188 0.011 594.447 -1.55662 
209 1 0.0105736 0.0898516 0.0690394 0 0 0 -1.51714e-06 2.47267e-07 -2.94002e-07 -5.53085e-07 3.26429e-07 -1.70544e-07 2.35636e-05 1.80262e-05 -7.38366e-05 0.011 594.765 -1.48216 
127 1 0.0374783 0.0896609 0.0753378 0 0 0 -6.13886e-06 3.18216e-06 2.78266e-06 -1.2279e-06 5.4833e-07 -1.0415e-07 -9.62941e-05 6.12144e-06 -0.000353261 0.011 594.759 -1.47992 
183 1 0.0653244 0.0896837 0.0712184 0 0 0 -1.32223e-05 9.88136e-06 3.371e-06 -2.80327e-06 8.9271e-07 9.82282e-07 -0.00016501 0.000438169 -0.00120536 0.011 594.454 -1.55172 
194 1 0.0893172 0.0897645 0.0700221 0 0 0 1.45635e-06 -9.15514e-07 -2.60008e-06 3.05901e-07 2.38636e-08 -7.07268e-07 0.000249171 9.8678e-05 0.000185745 0.011 594.431 -1.56795 
187 1 0.0105543 0.010344 0.0908398 0 0 0 -9.68977e-06 -4.63522e-07 -5.19742e-07 -1.54002e-06 -4.04023e-08 -5.14713e-07 0.000125099 0.000336323 0.000490064 0.011 594.287 -1.59387 
229 1 0.0868499 0.00985511 0.0875483 0 0 0 -0.000368544 -1.09732e-05 -0.000198541 -3.71333e-05 8.25935e-07 -1.72564e-05 -0.0197301 0.0736271 0.0345529 0.011 593.136 -1.88915 
58 1 0.0107823 0.0316262 0.0910418 0 0 0 -1.41093e-05 1.37156e-07 -4.36338e-06 -2.45998e-06 -1.44566e-08 -1.26648e-06 -0.000197094 0.00102116 -9.08045e-06 0.011 594.321 -1.57868 
53 1 0.0528341 0.0187556 0.0909078 0 0 0 -9.43617e-05 0.000110146 9.22568e-06 -1.03643e-05 1.23805e-05 -3.01979e-07 0.00571292 -0.000120228 0.0161071 0.011 593.212 -1.84835 
167 1 0.0729701 0.0255406 0.0880378 0 0 0 -0.000140474 -2.41101e-06 2.54415e-05 -1.41064e-05 -6.16344e-07 2.32255e-06 -0.00890342 -0.000637571 -0.0274611 0.011 593.081 -1.90164 
49 1 0.0307653 0.0381404 0.0876039 0 0 0 -2.73536e-05 2.91252e-07 2.90713e-06 -5.08203e-06 -3.777e-07 -1.16241e-07 -0.000422143 -0.00295177 -0.000561103 0.011 594.302 -1.58856 
39 1 0.0897518 0.0377456 0.0918717 0 0 0 6.70678e-06 -7.51486e-05 -1.74588e-05 8.81034e-08 -7.53577e-06 -3.99901e-06 -0.00461523 -0.00271869 0.00744699 0.011 593.256 -1.83104 
102 1 0.0284143 0.0591567 0.0943141 0 0 0 -9.27889e-06 2.8743e-06 6.09096e-06 -2.98328e-06 -9.18434e-07 -7.15539e-07 -0.000131673 -0.0013087 -0.00075773 0.011 594.78 -1.46842 
47 1 0.0478053 0.0509483 0.0901403 0 0 0 -2.54664e-05 5.82474e-06 -5.97469e-06 -4.41261e-06 -1.81828e-06 -2.05429e-06 0.000658856 0.00339541 0.000685651 0.011 594.637 -1.53412 
255 1 0.0724718 0.0533018 0.0843169 0 0 0 -2.28611e-05 -2.32777e-05 3.04739e-05 -4.99805e-06 -4.24173e-06 2.1974e-06 -0.0107369 -0.000341135 -0.0019248 0.011 594.341 -1.60736 
260 1 0.0897785 0.0584202 0.0958564 0 0 0 -1.56064e-05 -1.216e-05 -1.31084e-05 -2.41595e-06 -1.31343e-06 -3.82267e-06 0.00181227 0.000731638 -0.00179435 0.011 594.374 -1.58951 
93 1 0.0702565 0.072611 0.0941209 0 0 0 -3.15781e-06 3.94639e-06 -1.22439e-05 -1.26839e-06 -8.46344e-08 -4.03543e-06 0.0028899 9.16558e-06 -0.000245206 0.011 594.452 -1.55164 
133 1 0.0892945 0.076173 0.0853083 0 0 0 4.64991e-07 6.88383e-07 -2.3622e-06 -3.63119e-07 -8.69283e-08 -1.83582e-06 -0.000439606 -0.000238805 -0.000444087 0.011 594.449 -1.55441 
256 1 0.0207014 0.0893776 0.0883456 0 0 0 -3.8276e-06 3.6126e-06 1.62977e-06 -6.46428e-07 3.58649e-07 -4.26971e-07 -8.34488e-05 -8.79569e-05 -0.000125472 0.011 594.796 -1.45984 
6 1 0.0531532 0.0837563 0.0878194 0 0 0 -6.25591e-06 5.39015e-06 3.59636e-06 -1.93224e-06 8.05173e-07 -4.8426e-07 0.000772868 -0.000133011 0.000930877 0.011 594.491 -1.53357 
246 1 0.0105983 0.0104834 0.112179 0 0 0 -4.67264e-06 -3.32115e-06 2.12987e-06 -5.13827e-07 -2.39339e-07 -2.72742e-07 -0.000162289 3.58056e-05 -0.000323316 0.011 594.399 -1.56783 
149 1 0.0295217 0.010607 0.101694 0 0 0 -2.39714e-05 1.74175e-06 1.04351e-05 -2.47085e-06 -1.7086e-07 1.71267e-07 0.001165 0.000123328 0.00212709 0.011 594.29 -1.5937 
156 1 0.0493619 0.0107066 0.110755 0 0 0 -1.0259e-05 4.8688e-06 -3.73188e-06 -1.22303e-06 1.31956e-07 -1.51731e-06 0.00073396 0.00214659 0.00084363 0.011 594.376 -1.57939 
91 1 0.0702401 0.0100928 0.101842 0 0 0 -6.47339e-05 6.506e-06 5.7291e-05 -6.53329e-06 6.14116e-07 7.49193e-06 0.00363105 0.013849 0.00963073 0.011 593.271 -1.82322 
241 1 0.0900961 0.010425 0.108623 0 0 0 4.37704e-05 4.69645e-05 -7.3555e-05 4.20838e-06 3.63755e-06 -6.83204e-06 0.00503438 -0.0112384 -0.00348188 0.011 594.675 -1.53996 
139 1 0.0164452 0.0310482 0.111083 0 0 0 -1.41083e-06 -1.22059e-06 -3.57438e-06 -1.03016e-06 5.27597e-07 -1.52615e-06 7.886e-05 0.000218958 1.07576e-05 0.011 594.402 -1.56656 
249 1 0.0399686 0.0294894 0.104756 0 0 0 -5.32909e-05 1.52396e-06 1.58361e-05 -6.71551e-06 -6.75046e-07 2.67426e-07 -0.00157312 0.00394262 -0.00276427 0.011 594.244 -1.61308 
5 1 0.0298518 0.0496353 0.113926 0 0 0 -2.47598e-06 4.91669e-06 6.7346e-06 -1.18814e-06 -2.42945e-06 -1.43016e-06 -0.000841106 0.00175317 -0.000442462 0.011 594.463 -1.53742 
148 1 0.0510927 0.0484013 0.111516 0 0 0 -4.12916e-06 -3.45022e-06 -1.07465e-06 -1.27735e-06 -1.05869e-06 -2.38993e-06 -0.000152602 -0.00120554 4.94648e-05 0.011 594.761 -1.5011 
122 1 0.0693596 0.0412435 0.102362 0 0 0 1.01502e-05 3.56139e-05 -9.6821e-07 1.05872e-07 4.42249e-06 -2.3668e-06 0.00612175 -0.000910343 0.00300161 0.011 593.27 -1.82078 
254 1 0.0886885 0.0446661 0.11189 0 0 0 -1.24042e-05 -2.75436e-06 -2.15506e-05 -1.79878e-06 -3.12869e-07 -4.6935e-06 -0.00100513 0.00234717 -0.00228351 0.011 594.684 -1.53348 
251 1 0.0105115 0.0513843 0.105019 0 0 0 -3.93502e-06 8.20549e-07 9.02646e-06 -1.05842e-06 -2.6947e-06 4.75781e-07 -0.000922739 -0.00085475 6.48475e-05 0.011 594.779 -1.466 
23 1 0.0687609 0.0608116 0.111976 0 0 0 -5.11761e-06 -7.45473e-07 1.49727e-06 -1.36753e-06 -2.6945e-07 -1.38417e-06 -0.00230408 -0.000120188 -0.000522383 0.011 594.415 -1.55682 
84 1 0.0135717 0.0732803 0.100602 0 0 0 -3.36144e-06 4.60914e-06 1.6492e-06 -1.63289e-06 5.11537e-07 -6.82738e-07 0.000289474 0.000354985 -8.15557e-05 0.011 594.666 -1.51669 
219 1 0.0316308 0.0712545 0.11252 0 0 0 -1.22159e-06 2.10055e-06 8.76969e-07 -1.84287e-06 -2.13966e-06 -2.90608e-06 0.000290143 -0.000195903 0.0002673 0.011 594.068 -1.62875 
59 1 0.0506533 0.0683152 0.102673 0 0 0 -1.03735e-06 -8.18061e-07 -4.04638e-06 -1.59763e-06 -1.26287e-06 -3.54086e-06 9.56671e-05 0.000700964 -0.000584933 0.011 594.459 -1.54879 
158 1 0.0876351 0.0711539 0.112626 0 0 0 2.07532e-06 -6.55277e-06 -5.84881e-06 -1.29683e-07 -9.89006e-07 -2.96205e-06 -0.00072138 -0.000233947 -0.000265221 0.011 594.404 -1.56242 
176 1 0.0106113 0.0894532 0.114738 0 0 0 -5.63018e-07 7.91965e-07 1.57642e-06 -4.7927e-08 7.81829e-08 -4.01553e-07 -0.000102902 -0.000116475 5.76729e-06 0.011 593.983 -1.67051 
128 1 0.0375959 0.0892798 0.102108 0 0 0 -3.70677e-06 6.34108e-07 2.47332e-06 -1.28552e-06 -8.86763e-07 -6.20401e-07 -0.000282353 0.00019206 -0.0003756 0.011 594.752 -1.4788 
37 1 0.0633731 0.0898712 0.105254 0 0 0 -2.30584e-06 1.42244e-06 3.48244e-06 4.86065e-07 3.9583e-10 -1.52015e-06 -0.000500834 0.00045199 -0.000283064 0.011 594.432 -1.55986 
211 1 0.0861892 0.0895474 0.101444 0 0 0 1.83396e-06 -3.69103e-07 -4.18308e-06 -9.31081e-07 -1.55161e-07 -1.34781e-06 0.000457083 0.000153753 0.000216652 0.011 594.45 -1.55217 
250 1 0.0102784 0.0141821 0.133063 0 0 0 -8.54716e-07 -6.89524e-07 1.86312e-06 6.24844e-08 -1.40502e-07 -4.77381e-07 -0.000159762 -0.00012436 -0.00019861 0.011 594.416 -1.55914 
87 1 0.0293523 0.010618 0.123273 0 0 0 -3.75616e-06 -3.49775e-06 2.26774e-06 -3.57326e-07 -3.71098e-07 -7.63937e-07 -0.000178823 0.000712047 0.000170214 0.011 594.41 -1.56205 
48 1 0.0483693 0.0154427 0.131907 0 0 0 2.36093e-06 1.38678e-06 -5.6866e-06 2.33549e-07 1.00116e-07 -1.98468e-06 5.82168e-05 0.000358732 0.000464214 0.011 594.468 -1.53656 
215 1 0.0672472 0.0102587 0.123148 0 0 0 1.09028e-05 -5.00889e-06 1.20917e-05 1.0111e-06 -6.19299e-07 8.84455e-07 -0.00112659 -0.00287956 -0.000814761 0.011 594.785 -1.48842 
242 1 0.0894667 0.0110418 0.1296 0 0 0 -2.69637e-05 -4.29323e-06 -3.31879e-05 -2.5362e-06 1.94411e-08 -3.29546e-06 -5.36034e-05 0.00116658 0.000308175 0.011 594.92 -1.42853 
175 1 0.0589634 0.0291889 0.117541 0 0 0 3.95532e-06 -4.23042e-06 1.46305e-06 4.19491e-07 -9.15577e-07 -1.7745e-06 0.000359373 -0.000171414 0.000182221 0.011 594.86 -1.45643 
72 1 0.0799085 0.0263657 0.116908 0 0 0 4.44449e-06 9.99094e-06 -2.04171e-05 6.14541e-07 7.07165e-07 -3.39517e-06 0.00289487 0.00304197 0.00218215 0.011 594.894 -1.44561 
82 1 0.0108145 0.037169 0.130154 0 0 0 1.84898e-07 -8.56824e-07 -7.46428e-07 -3.36662e-07 -3.63497e-07 -8.83728e-07 -7.51965e-05 -3.23517e-05 -5.05482e-05 0.011 594.38 -1.57588 
227 1 0.0401914 0.0345463 0.12545 0 0 0 2.06163e-06 2.47704e-06 4.16156e-06 2.43654e-07 -3.5945e-07 -1.23526e-06 0.000615966 5.36636e-05 -0.000703136 0.011 594.439 -1.55007 
67 1 0.0717981 0.0446651 0.1256 0 0 0 1.06875e-07 1.15508e-06 6.32913e-06 -1.59507e-07 -2.52265e-07 -1.31238e-06 0.000900203 0.000520974 0.000442065 0.011 594.89 -1.44184 
24 1 0.0895704 0.0350322 0.133289 0 0 0 4.6987e-06 -1.39021e-06 -6.86825e-06 3.99519e-07 -6.96264e-08 -1.84523e-06 0.000322257 -0.000720793 0.000390632 0.011 594.929 -1.42168 
151 1 0.0511761 0.0661471 0.124505 0 0 0 2.69545e-06 -2.80058e-06 -3.38189e-06 -6.78887e-07 3.56425e-06 -4.74535e-06 1.42039e-05 -0.000142543 -0.00186149 0.011 594.398 -1.5646 
205 1 0.0897512 0.0571851 0.128849 0 0 0 2.18946e-06 -5.38401e-06 -1.09072e-05 1.09279e-07 -2.40366e-07 -3.44946e-06 0.00115098 -0.000878432 0.000736976 0.011 594.45 -1.54187 
66 1 0.0105903 0.0685175 0.120376 0 0 0 -2.01891e-07 4.97591e-07 6.92589e-07 -8.13113e-07 -4.10492e-07 -1.14062e-06 0.000134593 -4.47076e-05 3.08966e-05 0.011 594.02 -1.65344 
154 1 0.0700191 0.0798265 0.122023 0 0 0 2.44004e-06 -8.64631e-07 -3.70364e-06 6.60157e-07 1.99654e-07 -2.55067e-06 0.000918488 0.000364258 -0.000170699 0.011 594.405 -1.56112 
113 1 0.0279088 0.0892588 0.127593 0 0 0 -1.1873e-06 -4.28293e-08 2.99351e-07 1.02768e-06 -5.7276e-07 -1.81515e-06 3.40272e-05 0.000169323 -0.000121472 0.011 593.945 -1.68887 
57 1 0.0486662 0.0879566 0.121136 0 0 0 -1.19745e-06 3.29516e-06 2.79766e-06 1.81333e-06 -2.25991e-06 -2.19408e-06 0.000229311 -0.000410217 0.000351553 0.011 593.982 -1.67065 
226 1 0.0894244 0.0898457 0.122582 0 0 0 1.75947e-06 -2.41522e-06 -3.93339e-06 4.99638e-07 -6.73866e-07 -1.3893e-06 0.000240248 -9.98956e-05 0.000167696 0.011 594.402 -1.56285 
115 1 0.0349092 0.00967746 0.147785 0 0 0 2.06523e-06 -3.62271e-07 -1.2027e-06 3.79159e-07 -1.04459e-07 -1.30773e-06 -5.75434e-05 -9.3108e-05 -0.000182274 0.011 594.428 -1.55103 
137 1 0.0807299 0.0101881 0.14847 0 0 0 -4.09639e-06 -1.1857e-06 -9.17302e-06 -6.2433e-07 -5.70739e-08 -1.15027e-06 -0.000439809 0.00105105 0.000295202 0.011 594.907 -1.43209 
134 1 0.0263021 0.0262743 0.139302 0 0 0 8.77949e-07 2.87977e-08 3.93126e-07 2.27156e-07 -5.7575e-07 -1.67865e-06 0.000130886 5.73269e-05 0.000173052 0.011 594.418 -1.55818 
129 1 0.0507483 0.0308355 0.146554 0 0 0 3.2123e-07 5.9193e-07 4.48897e-09 -3.8874e-07 5.36609e-07 -1.48697e-06 0.000382476 -0.000155987 0.000136674 0.011 594.848 -1.45684 
75 1 0.0700296 0.0264401 0.137483 0 0 0 9.05883e-07 5.0679e-07 -1.24689e-06 -3.05068e-07 4.64391e-07 -1.79802e-06 -0.000476339 0.000250404 -0.000385738 0.011 594.929 -1.42126 
198 1 0.0289125 0.0475849 0.137643 0 0 0 1.52782e-06 7.87005e-07 2.81908e-06 9.25848e-08 -7.12208e-07 -1.28113e-06 2.44954e-05 -0.000476774 0.000110114 0.011 594.347 -1.58897 
244 1 0.0620005 0.0485662 0.144287 0 0 0 -1.55436e-06 -7.30865e-07 1.58707e-06 2.34556e-07 3.90733e-07 -2.28419e-06 -0.000758753 -0.00045104 0.000155431 0.011 594.855 -1.4563 
135 1 0.0847492 0.0491535 0.148405 0 0 0 2.90413e-06 -2.34751e-06 -7.77061e-06 -7.96257e-07 7.18226e-08 -2.61223e-06 -0.000570708 0.000734987 -0.000248774 0.011 594.871 -1.44857 
71 1 0.00991293 0.0567032 0.137454 0 0 0 1.65091e-07 -4.01577e-07 -5.2224e-07 1.49618e-07 -3.00729e-07 -1.08055e-06 3.65183e-05 2.44963e-05 2.92846e-05 0.011 594.023 -1.65019 
10 1 0.0453633 0.0626077 0.145413 0 0 0 -6.03223e-07 -5.03221e-07 -2.72513e-06 -7.73114e-07 -8.0724e-07 -2.23664e-06 0.000273991 0.000214483 -0.000171653 0.011 594.024 -1.64948 
17 1 0.0720905 0.0654355 0.136836 0 0 0 8.66954e-07 -7.11054e-06 -6.94343e-06 4.28248e-08 -5.53586e-07 -3.12123e-06 -0.000105178 0.00040093 -0.000693044 0.011 594.434 -1.54835 
29 1 0.010547 0.0805239 0.137846 0 0 0 -6.759e-07 -2.01986e-07 6.9083e-07 1.05174e-06 -1.723e-07 -1.3627e-06 -4.4995e-05 -3.30223e-05 -2.5147e-05 0.011 593.951 -1.68418 
132 1 0.0280527 0.0685318 0.133565 0 0 0 -9.05588e-07 2.38912e-07 8.14656e-07 5.4999e-07 -1.41167e-06 -2.48956e-06 -0.000122257 9.08552e-05 0.000110002 0.011 593.978 -1.67155 
170 1 0.0351473 0.0822777 0.148395 0 0 0 -1.15892e-06 1.04011e-06 6.24456e-09 -2.06099e-06 -1.80392e-06 -4.56713e-07 -6.65386e-05 -0.000228535 -0.000240635 0.011 593.951 -1.686 
173 1 0.0556915 0.0812716 0.140677 0 0 0 -1.57106e-06 1.09737e-07 3.80434e-07 -1.61705e-06 -1.86597e-06 -1.48029e-06 0.000290439 0.000235141 0.000113497 0.011 594.357 -1.5859 
50 1 0.079964 0.0848753 0.140415 0 0 0 1.95498e-06 -4.7762e-06 -4.36933e-06 -7.99121e-08 -1.53605e-07 -1.90087e-06 -0.000201337 -0.00022234 0.000475073 0.011 594.397 -1.56549 
252 1 0.0114672 0.0115233 0.154227 0 0 0 -9.8056e-05 -5.24635e-05 4.03665e-07 -8.46612e-06 -5.95485e-06 -6.48652e-07 -0.00521645 0.0138723 -0.180333 0.011 594.454 -1.53974 
101 1 0.0483176 0.0164209 0.161937 0 0 0 1.61669e-06 -9.03342e-07 -1.13421e-06 1.29187e-07 -8.32062e-08 -1.39719e-06 -9.64483e-05 5.1777e-05 3.27856e-05 0.011 594.548 -1.5008 
171 1 0.0681588 0.0101684 0.164893 0 0 0 1.94354e-06 -5.15261e-07 -1.88367e-06 1.97226e-08 -2.74995e-08 -5.98427e-07 3.3307e-06 6.7237e-05 -2.87921e-05 0.011 594.823 -1.46659 
248 1 0.089461 0.028793 0.153384 0 0 0 -1.3092e-06 -1.28869e-06 -6.3279e-06 -5.73679e-07 2.782e-07 -1.38182e-06 0.000293947 -0.000252419 -0.000210821 0.011 594.9 -1.43461 
136 1 0.0107577 0.0375697 0.151741 0 0 0 1.5732e-07 6.30931e-07 -3.41868e-07 2.33293e-07 -3.51184e-06 -1.11676e-06 -6.32686e-05 2.96487e-05 5.81353e-05 0.011 594.446 -1.54456 
193 1 0.0326591 0.0374634 0.156005 0 0 0 -2.02677e-07 -6.98758e-07 9.05785e-07 -5.19537e-07 -1.17798e-06 -1.49934e-06 4.13368e-05 8.16295e-05 -1.32886e-05 0.011 594.509 -1.51924 
179 1 0.0690765 0.0337247 0.158039 0 0 0 1.13991e-06 4.87542e-07 -3.88763e-11 -7.75268e-07 6.23302e-07 -1.65127e-06 0.000528603 0.000393023 5.27999e-05 0.011 594.902 -1.43329 
74 1 0.0226518 0.0610596 0.153408 0 0 0 -7.75081e-07 -3.17531e-07 3.73269e-07 1.06022e-06 -9.40551e-08 -1.88183e-06 4.04156e-05 -3.85992e-05 -1.27687e-05 0.011 594.067 -1.63071 
197 1 0.0658651 0.0673481 0.156421 0 0 0 3.23454e-06 -3.12971e-06 -4.31659e-06 -2.98083e-07 -9.03101e-07 -2.98047e-06 -1.90455e-05 -2.41239e-05 -8.30321e-05 0.011 594.364 -1.57981 
76 1 0.0871349 0.0694825 0.153393 0 0 0 4.09413e-06 -1.44064e-06 -5.33189e-06 -3.55123e-07 -1.0712e-08 -2.30422e-06 0.000463692 -0.000111565 0.000274882 0.011 594.401 -1.56407 
56 1 0.014163 0.0895893 0.156584 0 0 0 -3.40634e-07 4.15794e-08 2.1175e-07 9.82534e-07 1.75231e-07 -1.21301e-06 -9.33504e-06 4.52e-05 -4.16693e-05 0.011 594.026 -1.64916 
65 1 0.0463631 0.0894547 0.165194 0 0 0 2.36499e-07 -2.65455e-07 -6.07658e-07 -1.28366e-06 -4.28573e-07 -6.50771e-07 5.8083e-05 0.000287315 -1.10359e-05 0.011 593.981 -1.67014 
119 1 0.0672239 0.0892553 0.157398 0 0 0 1.01865e-06 -2.01495e-06 -2.09579e-06 -6.68379e-07 5.22331e-07 -2.23175e-06 6.60667e-06 0.000214097 9.00203e-07 0.011 594.364 -1.58173 
236 1 0.0897944 0.0897936 0.158445 0 0 0 4.70022e-08 -6.11619e-07 -1.03037e-06 -6.37711e-08 -8.95629e-08 -8.29949e-07 1.30848e-05 -1.98674e-05 3.08974e-05 0.011 594.357 -1.58423 
107 1 0.0115332 0.0106756 0.175584 0 0 0 -7.70701e-06 -7.76721e-07 1.73228e-06 4.3215e-07 -2.38672e-07 -2.57685e-07 -4.40854e-05 0.00146212 0.000587352 0.011 594.93 -1.42495 
81 1 0.0347397 0.0105193 0.177322 0 0 0 1.74046e-06 9.21069e-08 1.03013e-07 -1.49774e-07 -3.45572e-07 -9.01432e-07 1.45158e-05 8.1774e-05 -0.000124658 0.011 594.921 -1.42903 
143 1 0.0894263 0.0122012 0.168141 0 0 0 8.59869e-07 -1.10509e-06 -5.27495e-06 -4.29952e-08 -5.73416e-08 -6.65799e-07 0.000625531 -0.000330234 9.8807e-05 0.011 594.542 -1.51397 
31 1 0.0404816 0.0312283 0.174775 0 0 0 1.75566e-06 -3.78971e-07 -6.19291e-07 -1.11937e-06 -7.81122e-07 -1.5625e-06 -1.39487e-05 0.000120053 7.60751e-05 0.011 594.856 -1.4562 
144 1 0.0608945 0.0261751 0.176072 0 0 0 2.11305e-06 -1.47872e-06 -9.57924e-07 -4.94456e-07 3.05298e-07 -1.30718e-06 1.07848e-05 -0.000149234 -0.000162745 0.011 594.578 -1.50047 
131 1 0.0181097 0.0343129 0.171721 0 0 0 7.56926e-08 1.57935e-07 4.77676e-08 -3.03494e-07 -2.62385e-06 -1.26454e-06 7.5737e-05 -3.40397e-05 -0.000146373 0.011 594.895 -1.44199 
38 1 0.0520549 0.0478704 0.182608 0 0 0 1.20758e-06 4.70708e-07 -7.92506e-07 1.45342e-06 -1.84075e-06 -2.98333e-06 2.19786e-05 -4.42206e-06 0.000129214 0.011 594.517 -1.52968 
55 1 0.0892417 0.0412926 0.170438 0 0 0 -1.69058e-07 -1.70214e-06 -1.67039e-06 1.10697e-08 2.60667e-08 -7.13354e-07 3.06628e-05 4.93059e-05 -4.22976e-05 0.011 594.492 -1.53986 
124 1 0.0106761 0.0599138 0.174834 0 0 0 2.945e-07 -6.76832e-08 3.36757e-07 -1.08947e-07 -1.34123e-07 -1.31281e-06 5.31857e-05 -3.43101e-05 -7.41609e-06 0.011 594.703 -1.48026 