ITEM: TIMESTEP
280000
ITEM: NUMBER OF ATOMS
1005
ITEM: BOX BOUNDS mm mm mm
0 0.1
0 0.1
0 1.1
ITEM: ATOMS id type x y z ix iy iz vx vy vz fx fy fz omegax omegay omegaz radius f_Temp[0] f_heatFlux[0] 
152 1 0.025447 0.0104911 0.0102217 0 0 0 -1.63481e-06 -1.8694e-06 -2.7864e-06 2.11076e-08 1.15928e-06 -6.82804e-07 7.46524e-05 0.000206754 -7.80546e-05 0.011 590.719 -2.59493 
97 1 0.0100959 0.0228962 0.0166304 0 0 0 4.53571e-07 -1.55148e-06 6.13439e-07 -7.3566e-07 1.68455e-06 -1.48162e-06 0.000197827 5.16432e-06 -0.000130319 0.011 590.764 -2.56288 
231 1 0.0360323 0.0295064 0.0103015 0 0 0 3.0624e-06 -6.37897e-06 4.01474e-06 -3.10838e-06 2.45583e-06 -3.58248e-06 0.000699024 0.000139008 -0.000500425 0.011 590.731 -2.58648 
89 1 0.0620406 0.0171548 0.0104267 0 0 0 -7.74748e-06 -1.19979e-06 6.22025e-06 3.20213e-06 -4.29765e-06 -2.43097e-06 6.15106e-05 -0.000358477 -0.00116369 0.011 589.427 -2.9298 
216 1 0.0812365 0.0269583 0.00999814 0 0 0 -4.87216e-06 -9.17664e-06 1.8188e-05 4.85818e-06 -2.29391e-06 -5.38517e-06 0.00151081 -0.00104973 0.000172958 0.011 589.361 -2.95798 
155 1 0.0150043 0.0423283 0.0103379 0 0 0 1.39025e-06 -8.88576e-07 1.04796e-06 2.68402e-06 1.12716e-06 -1.31971e-06 2.79102e-05 0.000141071 2.64119e-06 0.011 590.77 -2.56721 
79 1 0.0644503 0.0460875 0.0105432 0 0 0 -9.30731e-06 -6.83635e-06 -5.26406e-06 7.87905e-06 -4.47882e-06 -1.47525e-06 0.000360862 4.02038e-05 0.00194328 0.011 589.665 -2.80503 
180 1 0.0339227 0.0582287 0.0104702 0 0 0 -1.22615e-06 -9.80184e-07 2.82891e-08 3.79387e-06 4.4505e-06 -1.89892e-06 7.89622e-05 -0.000119434 -0.000284792 0.011 591.283 -2.42881 
33 1 0.0814135 0.0599202 0.0102637 0 0 0 -2.91688e-05 -3.19227e-05 1.74152e-05 9.58689e-06 6.15545e-06 -3.52749e-06 0.0024639 -0.00321837 -0.00427611 0.011 591.919 -2.27515 
2 1 0.0105504 0.0718177 0.00973631 0 0 0 1.13365e-07 -5.72186e-07 3.82147e-07 1.47227e-06 9.05239e-07 -1.63975e-06 3.06894e-05 -5.00781e-06 -4.78675e-05 0.011 591.288 -2.42501 
30 1 0.042326 0.0807625 0.01 0 0 0 1.81292e-08 -2.96555e-07 -5.14374e-08 5.98977e-06 2.62142e-06 -1.76554e-06 2.95668e-05 7.36352e-06 9.87036e-05 0.011 591.328 -2.40736 
253 1 0.0601189 0.0675844 0.0106245 0 0 0 -5.77102e-06 -5.54529e-06 2.90688e-06 5.27802e-06 -4.64227e-06 8.31497e-08 0.000358944 -0.000224418 -0.000581004 0.011 591.935 -2.26738 
25 1 0.0890677 0.0801553 0.00996911 0 0 0 3.13579e-06 -1.81394e-05 1.14948e-05 -7.77318e-07 4.37185e-06 -2.65687e-06 9.17621e-05 0.000862256 0.00186132 0.011 592.011 -2.22549 
233 1 0.0222915 0.0895166 0.0118684 0 0 0 2.7684e-07 -4.05765e-07 3.63277e-07 1.76264e-06 1.24895e-06 -4.62595e-07 -3.58235e-05 4.78083e-06 1.99063e-05 0.011 591.272 -2.43676 
192 1 0.0689571 0.0890002 0.0109516 0 0 0 1.28511e-07 -1.13918e-05 3.83009e-06 9.03693e-06 7.14949e-06 -1.29759e-07 0.000925403 -0.00032727 -0.00220455 0.011 591.998 -2.23527 
166 1 0.0440587 0.010733 0.0202803 0 0 0 -1.12128e-05 -1.78102e-06 -1.35781e-06 1.7599e-06 -1.2194e-06 -3.26817e-06 0.0004576 -0.00120792 0.000765141 0.011 590.574 -2.6632 
203 1 0.0627282 0.0103235 0.0310023 0 0 0 -1.33362e-05 1.08382e-06 4.67726e-06 -3.55435e-06 -2.11637e-06 -1.4171e-06 0.000700653 0.00113872 0.000664999 0.011 589.464 -2.90209 
234 1 0.0888446 0.0102814 0.020733 0 0 0 -8.02508e-06 -9.55173e-06 7.32412e-06 1.82128e-06 -1.09378e-07 2.99116e-07 0.00083112 -0.000980544 0.000970445 0.011 589.352 -2.9655 
22 1 0.0674544 0.0308919 0.0259844 0 0 0 2.26579e-06 1.99479e-06 4.32104e-06 -1.73221e-06 -3.22159e-06 -5.81297e-06 -0.00211662 0.00011703 -0.000617687 0.011 589.483 -2.88909 
104 1 0.0246176 0.0349089 0.0292665 0 0 0 3.03953e-06 -6.17539e-06 3.32422e-06 1.39879e-06 2.70677e-06 -6.31898e-06 -0.000377764 -0.00046802 2.90965e-05 0.011 590.791 -2.54693 
35 1 0.0463015 0.0343865 0.0280728 0 0 0 5.5238e-06 6.18818e-07 6.78507e-06 -1.4992e-06 2.33937e-06 -9.66969e-06 -0.00103775 0.000209782 0.00116516 0.011 590.807 -2.54371 
147 1 0.0896089 0.0357631 0.0270789 0 0 0 7.08066e-06 -3.7156e-05 5.1484e-05 -1.18699e-06 4.11288e-06 -1.36658e-05 0.00208329 0.00446297 0.00231439 0.011 589.593 -2.83889 
8 1 0.0158775 0.0580097 0.0245507 0 0 0 1.36467e-06 -1.00801e-06 1.09306e-06 8.86824e-06 3.09934e-06 -4.35777e-06 -4.0986e-05 6.39581e-05 0.000143746 0.011 591.217 -2.45699 
63 1 0.0362743 0.0531949 0.0311912 0 0 0 -1.287e-06 -1.28453e-06 1.6397e-07 4.94148e-06 3.86532e-06 -4.86171e-06 -7.73724e-05 0.000201485 -6.34998e-05 0.011 591.45 -2.35384 
99 1 0.057621 0.0556956 0.0284726 0 0 0 -7.30657e-06 -1.50686e-05 2.62713e-06 1.00263e-05 -5.27341e-07 -1.9641e-06 0.000552414 0.000387622 -0.00110607 0.011 591.955 -2.25879 
224 1 0.0871996 0.0564695 0.0302948 0 0 0 -1.10459e-05 -4.2806e-05 4.19211e-05 5.73428e-06 5.65491e-06 -8.69917e-06 -0.00385997 0.00698306 0.00371048 0.011 591.875 -2.28724 
126 1 0.0103591 0.0787914 0.0293282 0 0 0 5.15196e-07 -7.34293e-07 5.46563e-07 1.50401e-06 8.33636e-07 -1.9403e-06 2.76703e-05 -2.86458e-06 -5.15696e-05 0.011 591.576 -2.28962 
163 1 0.0308218 0.0731115 0.0256591 0 0 0 3.87039e-07 -1.01925e-06 1.54524e-07 5.51814e-06 5.35977e-06 -1.656e-06 -1.36117e-05 2.60707e-05 -4.6405e-05 0.011 591.337 -2.39138 
12 1 0.0744991 0.0734396 0.0257571 0 0 0 -1.64448e-05 -2.60839e-05 1.89306e-05 6.16841e-06 3.45931e-06 -2.52355e-06 -0.00104892 -0.0023834 -0.00366848 0.011 592.008 -2.22802 
257 1 0.0531549 0.0892636 0.0262309 0 0 0 -8.73831e-07 -1.49888e-06 8.03834e-07 5.90923e-06 -1.54817e-07 -2.47705e-06 6.73715e-05 -0.000141038 -0.000210171 0.011 591.96 -2.25092 
243 1 0.0892876 0.08919 0.0286319 0 0 0 5.33345e-07 -1.23487e-05 6.76848e-06 4.83108e-07 2.78965e-06 -1.64513e-06 -0.00099444 0.000321038 0.00108595 0.011 592.209 -2.13151 
223 1 0.0366952 0.0106916 0.04052 0 0 0 -2.60444e-05 -8.91817e-06 -1.77443e-05 -4.02517e-06 -1.47541e-07 -5.31977e-06 -0.00130478 0.000210433 0.00229008 0.011 590.868 -2.51264 
70 1 0.0104573 0.0206613 0.0372904 0 0 0 -9.84514e-07 -2.6004e-06 2.09465e-06 1.56111e-06 -1.62847e-07 -3.81359e-06 -0.00021528 -0.000151475 -0.000260982 0.011 591.234 -2.34356 
45 1 0.0533419 0.0234856 0.0450382 0 0 0 -4.14976e-05 -1.83514e-05 2.39694e-05 1.16456e-06 1.86217e-06 -1.2566e-05 0.00323288 -0.00585607 -0.00214756 0.011 590.062 -2.62787 
108 1 0.0809202 0.0194329 0.0384452 0 0 0 -2.49082e-05 -7.58303e-05 2.87239e-05 -2.22963e-06 8.11624e-06 -7.14305e-06 0.00781853 -0.00366858 -0.0060316 0.011 589.653 -2.82101 
96 1 0.0118123 0.0470095 0.0420236 0 0 0 1.40887e-06 -2.45543e-06 1.02635e-06 1.49566e-06 1.93906e-06 -8.75841e-06 0.000236785 -2.06692e-05 -0.00030738 0.011 591.091 -2.40582 
9 1 0.0408209 0.0409413 0.0478629 0 0 0 -1.23112e-05 2.8375e-06 -1.27885e-07 5.85241e-06 1.96342e-07 -7.98054e-06 -2.73841e-05 -0.00128583 -0.000665153 0.011 593.714 -1.87118 
80 1 0.0755018 0.0427446 0.0417299 0 0 0 -2.89051e-05 -7.41255e-05 5.65927e-05 5.03288e-06 9.88636e-06 -1.97242e-05 0.00709312 -0.00996633 -0.00847013 0.011 590.213 -2.56734 
146 1 0.0234889 0.0652288 0.0441923 0 0 0 1.97016e-06 -4.13904e-07 2.34352e-06 3.37406e-06 2.08892e-07 -4.59279e-06 -0.000251827 3.5743e-05 0.000317862 0.011 591.734 -2.21108 
182 1 0.058402 0.0528209 0.0495934 0 0 0 -6.07139e-06 -2.1027e-05 1.18902e-05 4.38625e-06 3.22314e-06 -5.0593e-06 -0.000367243 0.00028316 -0.0022603 0.011 593.895 -1.81736 
240 1 0.0106827 0.0818065 0.0498456 0 0 0 1.28062e-06 -1.35531e-06 8.66878e-07 3.75608e-07 3.05091e-07 -1.70281e-06 2.12283e-05 -1.10221e-05 -0.000179484 0.011 594.227 -1.72643 
204 1 0.0466074 0.0738906 0.0406821 0 0 0 5.95118e-07 -1.04481e-05 1.11719e-06 4.63883e-06 8.05026e-06 -5.55247e-06 -0.000131601 -0.000160328 -0.00131592 0.011 591.465 -2.33491 
78 1 0.0692247 0.0708958 0.0483652 0 0 0 3.50379e-06 -1.88302e-05 5.18356e-06 4.31885e-06 2.26811e-06 3.46487e-06 0.00051698 0.000261408 0.0012396 0.011 594.219 -1.66878 
212 1 0.0899732 0.0687315 0.0468706 0 0 0 6.9364e-06 -1.88319e-06 2.86524e-06 9.72804e-07 -1.72305e-06 6.91012e-07 -0.000268627 -0.00022256 0.000519309 0.011 594.168 -1.69933 
32 1 0.0268325 0.0897764 0.037709 0 0 0 1.23686e-06 -1.11289e-06 3.25958e-08 -2.50038e-07 1.75663e-06 -5.11138e-07 5.35144e-05 0.000172997 6.56968e-05 0.011 591.678 -2.2373 
34 1 0.0702595 0.0898158 0.039087 0 0 0 -2.30343e-06 -7.01912e-06 4.49232e-06 2.19324e-06 6.31174e-07 1.23102e-06 -0.000334252 -0.000234349 -0.000376202 0.011 592.293 -2.09287 
217 1 0.0892415 0.0898424 0.0494498 0 0 0 4.54059e-07 -1.64045e-06 2.62667e-06 6.18913e-07 -5.1062e-08 -1.10029e-06 -6.24669e-05 3.99124e-05 0.000177156 0.011 594.109 -1.71468 
258 1 0.0129916 0.0100015 0.0550994 0 0 0 5.34145e-06 -1.19985e-06 3.13224e-06 -1.82272e-07 1.2291e-06 -3.54506e-06 0.000230876 0.00114394 -0.000523573 0.011 593.982 -1.74619 
164 1 0.0340193 0.0103403 0.0619114 0 0 0 2.32067e-05 5.96636e-06 -1.17432e-05 3.19404e-06 1.07271e-06 -6.18263e-06 -0.00101899 0.00472044 -0.00200507 0.011 594.058 -1.71586 
15 1 0.0686432 0.0109507 0.054543 0 0 0 -2.3937e-05 -3.3141e-05 2.18162e-06 -5.73651e-06 3.14684e-06 -2.76101e-06 -0.00184739 0.0069903 0.000553226 0.011 592.842 -2.03679 
64 1 0.025632 0.0267076 0.0511047 0 0 0 -2.16751e-06 2.26563e-06 -3.00222e-06 2.85671e-06 -4.11595e-07 -6.31586e-06 -0.000123637 0.000686383 0.0011098 0.011 594.013 -1.74015 
191 1 0.0895758 0.0318744 0.0533706 0 0 0 8.8955e-06 -9.29854e-05 4.06597e-05 -1.10971e-06 1.20154e-05 -1.4797e-05 -0.0034925 0.0182827 0.0180335 0.011 592.538 -2.17024 
199 1 0.0102991 0.0380886 0.0609947 0 0 0 1.19221e-06 -3.67594e-06 1.71511e-06 -1.70216e-07 2.65702e-06 -7.6367e-06 -0.000125642 0.000159007 0.000112226 0.011 594.001 -1.7356 
123 1 0.0652322 0.0343286 0.0585769 0 0 0 -1.62182e-05 -4.57869e-05 2.21094e-05 3.12391e-06 4.72993e-06 -1.52822e-05 -0.0020207 0.00969194 -0.00029019 0.011 592.64 -2.11181 
43 1 0.010601 0.0604897 0.0611534 0 0 0 -4.38041e-08 -1.6564e-06 9.20307e-07 1.99066e-06 1.94875e-06 -2.81565e-06 0.0005547 -0.000138955 -0.000218164 0.011 594.653 -1.53028 
161 1 0.0394497 0.0598849 0.0574863 0 0 0 -1.61645e-06 -8.20126e-06 7.71457e-06 3.87386e-06 1.83005e-07 -6.95443e-06 0.00115323 -0.000692525 -0.000671812 0.011 594.452 -1.62745 
92 1 0.0894392 0.0558497 0.0648064 0 0 0 3.13153e-05 5.97593e-06 -3.51325e-05 7.3311e-07 2.11111e-05 6.04603e-06 0.00978494 -0.00246698 0.00193159 0.011 594.341 -1.60355 
54 1 0.0259866 0.075681 0.0637092 0 0 0 3.8384e-06 -3.37679e-06 1.60851e-06 2.77193e-06 1.3869e-06 -7.37909e-06 -0.000463929 0.000273019 -0.000209057 0.011 594.757 -1.48884 
185 1 0.0534575 0.0751304 0.0613725 0 0 0 -2.21464e-07 -1.20679e-05 3.14761e-06 -5.47169e-07 2.25469e-06 -4.15464e-06 -0.000978306 -0.00024245 -0.00155619 0.011 594.34 -1.61245 
4 1 0.0399271 0.0897067 0.0543664 0 0 0 5.16312e-06 -2.12575e-06 -2.44649e-06 -1.66745e-07 8.53787e-07 -2.28231e-06 0.000172124 0.000182733 0.000319968 0.011 594.467 -1.61819 
103 1 0.0887623 0.0163964 0.0676223 0 0 0 0.00840293 0.000405055 0.00103758 -0.00186148 5.6291e-05 -0.000133534 -0.196044 -1.43103 2.32244 0.011 592.973 -1.97274 
52 1 0.0140788 0.0209838 0.0728808 0 0 0 2.64409e-05 -2.40207e-06 2.86627e-06 4.60745e-06 2.3126e-06 -4.81981e-06 -4.09301e-05 0.00109152 0.00050969 0.011 594.248 -1.62202 
28 1 0.0400648 0.0320457 0.0674214 0 0 0 1.94858e-05 2.06519e-05 -4.13162e-06 6.44081e-06 4.56711e-06 -5.85846e-06 -0.00118314 0.00282572 0.00340587 0.011 594.189 -1.64879 
232 1 0.0333606 0.0175482 0.0819446 0 0 0 6.9057e-05 7.3639e-06 -7.98554e-06 8.31659e-06 -3.55945e-06 -8.4176e-06 0.0012007 -0.000483158 0.00185763 0.011 594.203 -1.63718 
153 1 0.0266104 0.0487986 0.0697434 0 0 0 -3.6419e-06 -3.77275e-06 -1.58227e-07 5.62436e-07 -1.2244e-06 -1.04285e-05 -0.00052194 5.51516e-05 -0.000101583 0.011 594.34 -1.58091 
140 1 0.0580449 0.0362332 0.0784966 0 0 0 1.35841e-05 -4.68734e-05 3.72556e-05 9.3366e-06 2.40251e-06 -1.42612e-05 0.00432134 -0.00681695 -0.00939894 0.011 593.243 -1.84169 
189 1 0.081041 0.0375958 0.0723344 0 0 0 2.45826e-05 5.59031e-05 -2.61985e-05 -4.11741e-06 8.99712e-06 -1.71602e-05 -0.0166517 -0.00770424 -0.00433636 0.011 593.122 -1.90099 
200 1 0.0104473 0.0513289 0.0831916 0 0 0 2.75948e-06 1.08226e-06 -1.7697e-06 1.099e-06 -5.93287e-07 -6.14184e-06 -0.000880742 0.000196913 0.000816926 0.011 594.734 -1.48749 
157 1 0.0560403 0.0559521 0.0707417 0 0 0 2.80318e-05 6.81579e-06 1.88054e-05 9.57947e-06 4.5766e-06 -7.27795e-06 -0.00245545 0.00183309 0.00637475 0.011 594.357 -1.60194 
14 1 0.0104601 0.0722663 0.0801938 0 0 0 2.55557e-07 -1.82091e-06 -3.34314e-06 1.38047e-07 -1.14211e-06 -5.78654e-06 0.000537865 0.000432432 -0.000397982 0.011 594.793 -1.46267 
69 1 0.0401966 0.0684181 0.0785522 0 0 0 -3.53783e-07 -8.37669e-06 1.17869e-06 -5.92148e-06 -8.54623e-06 -1.21118e-05 -0.0005961 -0.000817104 -0.00151296 0.011 594.782 -1.46656 
85 1 0.0738097 0.0698964 0.0696546 0 0 0 1.30091e-05 -1.37628e-05 7.36868e-06 3.80755e-06 1.5017e-05 1.25478e-05 -0.00135572 0.000358602 -0.000877506 0.011 594.425 -1.5627 
209 1 0.0105736 0.0898516 0.0690394 0 0 0 1.57193e-06 -3.04046e-07 3.14824e-07 -2.11473e-07 2.70755e-07 -9.13187e-07 -4.69018e-05 -1.90353e-05 6.94596e-05 0.011 594.767 -1.48169 
127 1 0.0374785 0.0896608 0.0753377 0 0 0 5.79014e-06 -2.41472e-06 -2.26456e-06 -1.19584e-06 -7.77049e-07 -1.01269e-06 0.000106208 -1.53166e-05 0.000386843 0.011 594.759 -1.48039 
183 1 0.0653248 0.0896834 0.0712184 0 0 0 7.97524e-06 -7.20245e-06 -2.87775e-06 -7.27083e-06 2.6679e-06 -2.92559e-07 0.00015286 -6.59026e-05 0.000855882 0.011 594.432 -1.55761 
194 1 0.0893171 0.0897646 0.0700222 0 0 0 -2.2491e-06 3.30585e-07 2.25016e-06 6.72521e-07 6.60144e-08 -6.93044e-07 -0.000192775 -0.000189014 -0.000235993 0.011 594.409 -1.57378 
187 1 0.0105545 0.010344 0.09084 0 0 0 1.285e-05 7.51699e-07 7.50478e-07 2.64247e-06 1.41742e-07 -2.61473e-06 -0.000163027 -0.000453544 -0.000614887 0.011 594.291 -1.59305 
229 1 0.0868562 0.00985542 0.087553 0 0 0 0.000398789 2.91718e-05 0.000132163 -6.73172e-06 -1.2785e-06 -1.37211e-05 0.014164 -0.0867306 -0.038112 0.011 593.124 -1.89207 
58 1 0.0107824 0.0316265 0.0910421 0 0 0 1.92365e-05 -5.08947e-07 5.66045e-06 6.51227e-06 1.60606e-06 -1.26658e-06 0.000207076 -0.00127482 -0.000130781 0.011 594.324 -1.57798 
53 1 0.0528349 0.0187544 0.0909074 0 0 0 0.000130113 -0.000144533 2.80403e-06 7.65568e-06 -5.21013e-06 -1.19395e-05 -0.00794717 -0.00100888 -0.0214177 0.011 593.2 -1.85111 
167 1 0.0729714 0.0255411 0.0880388 0 0 0 0.000188709 -7.94158e-06 -7.683e-05 3.18537e-06 -4.81736e-06 -1.34452e-05 0.0163478 0.00940608 0.03461 0.011 593.068 -1.90513 
49 1 0.0307657 0.0381405 0.087604 0 0 0 3.50548e-05 1.5503e-06 -4.76357e-06 1.00139e-05 -5.43399e-06 -1.41568e-05 0.000170537 0.00365359 0.00143684 0.011 594.306 -1.5876 
39 1 0.0897515 0.0377468 0.091873 0 0 0 -4.62921e-06 9.02806e-05 -1.04555e-05 1.63601e-06 9.59594e-07 -1.12057e-05 0.00785976 0.000680817 -0.00824664 0.011 593.243 -1.83438 
102 1 0.0284144 0.0591566 0.0943141 0 0 0 1.01506e-05 5.888e-07 -6.68138e-06 -2.16239e-06 -1.16413e-05 -1.24424e-05 0.00024394 0.00161661 0.00112946 0.011 594.781 -1.46821 
47 1 0.0478059 0.050948 0.0901405 0 0 0 2.48649e-05 1.66236e-06 5.84819e-06 7.41993e-06 4.33737e-07 -1.1244e-05 -0.000401233 -0.00405382 -0.00099427 0.011 594.636 -1.53487 
255 1 0.0724719 0.053302 0.0843166 0 0 0 2.91899e-05 3.74124e-05 -3.23604e-05 6.89368e-06 6.85423e-06 -9.43781e-06 0.0142957 0.000989973 0.00366405 0.011 594.32 -1.61275 
260 1 0.0897788 0.0584204 0.0958568 0 0 0 1.70255e-05 1.40062e-05 1.48427e-05 5.79257e-07 1.47069e-06 -3.66162e-06 -0.00148369 -0.000949542 0.00166422 0.011 594.356 -1.5935 
93 1 0.0702566 0.0726109 0.0941211 0 0 0 2.5013e-06 -2.43834e-06 1.75646e-05 1.66705e-06 3.24806e-06 -4.80318e-06 -0.0037842 -0.000101689 0.000161166 0.011 594.432 -1.55665 
133 1 0.0892944 0.076173 0.0853083 0 0 0 -2.8908e-07 -7.60608e-07 4.10142e-06 2.15847e-06 2.87122e-06 -1.05913e-07 0.000177991 0.000411346 0.000646381 0.011 594.428 -1.56011 
256 1 0.0207014 0.0893776 0.0883455 0 0 0 3.70612e-06 -3.75147e-06 -1.20473e-06 6.01838e-07 -2.09595e-06 -2.91203e-06 8.46219e-05 6.39308e-05 0.000140296 0.011 594.797 -1.45947 
6 1 0.0531534 0.0837562 0.0878194 0 0 0 5.49178e-06 -3.67079e-06 -2.10714e-06 -2.686e-06 1.41603e-06 -6.30992e-07 -0.000734832 0.000173493 -0.000860611 0.011 594.472 -1.53817 
246 1 0.0105989 0.0104838 0.112179 0 0 0 6.58616e-06 4.95036e-06 -2.05989e-06 1.46315e-06 1.48505e-06 -2.78101e-06 0.00017272 2.3016e-05 0.000405348 0.011 594.393 -1.56939 
149 1 0.029522 0.0106069 0.101694 0 0 0 3.17148e-05 -5.31292e-07 -1.16186e-05 3.94237e-06 -3.28146e-06 -8.11866e-06 -0.00144057 -0.000466727 -0.00271772 0.011 594.293 -1.59331 
156 1 0.0493623 0.0107065 0.110754 0 0 0 5.01774e-06 -5.49387e-06 1.59557e-05 4.97002e-06 -2.26259e-06 -7.45191e-06 -0.000329478 -0.00363456 -0.000659073 0.011 594.37 -1.58089 
91 1 0.0702395 0.0100936 0.101842 0 0 0 0.000136046 -3.77314e-05 -9.60514e-05 3.26693e-06 3.77342e-06 -4.21187e-06 -0.0112743 -0.0334107 -0.0139539 0.011 593.26 -1.82578 
241 1 0.0900955 0.0104244 0.108624 0 0 0 -5.20082e-05 -5.36043e-05 9.81264e-05 8.46151e-06 1.95566e-06 -6.05828e-06 -0.00247042 0.016966 0.00502034 0.011 594.678 -1.53959 
139 1 0.0164455 0.0310481 0.111083 0 0 0 3.00634e-06 1.47681e-06 5.29211e-06 1.8111e-06 4.97034e-07 -1.23569e-06 -8.2756e-05 -0.000320971 -6.86276e-05 0.011 594.395 -1.56822 
249 1 0.0399695 0.0294893 0.104756 0 0 0 6.84118e-05 3.1343e-06 -1.64358e-05 9.06593e-06 -4.78498e-06 -1.21127e-05 0.00195638 -0.00543115 0.00333171 0.011 594.247 -1.61274 
5 1 0.0298517 0.049635 0.113926 0 0 0 2.70818e-06 -3.78475e-06 -6.45008e-06 3.15198e-06 6.03196e-07 -1.10871e-05 0.000878977 -0.00238389 0.000353769 0.011 594.457 -1.53865 
148 1 0.0510927 0.0484015 0.111517 0 0 0 6.90228e-06 -8.96089e-07 -7.42437e-06 3.71685e-07 -4.2789e-06 -1.00843e-05 0.000922588 0.00250937 -0.000717642 0.011 594.765 -1.50074 
122 1 0.0693589 0.0412435 0.102362 0 0 0 7.01754e-06 -6.14048e-05 9.60793e-07 -3.43664e-06 9.05852e-07 -2.05516e-05 -0.00943821 -0.00128461 -0.00244096 0.011 593.258 -1.82343 
254 1 0.0886887 0.0446666 0.111891 0 0 0 1.6763e-05 -6.91354e-06 1.80122e-05 -2.17299e-06 -1.57879e-06 -9.18261e-06 0.00102764 -0.00105122 0.0025025 0.011 594.688 -1.5332 
251 1 0.0105115 0.0513842 0.105019 0 0 0 5.30949e-06 3.26919e-07 -1.1394e-05 3.9071e-06 7.99451e-06 -1.14916e-05 0.00106147 0.00106459 6.20163e-05 0.011 594.78 -1.46582 
23 1 0.0687609 0.0608117 0.111976 0 0 0 8.16949e-06 -2.19772e-06 -7.46165e-06 -1.35839e-06 -3.85812e-06 -1.00696e-05 0.00353574 0.000297028 0.000983121 0.011 594.422 -1.55608 
84 1 0.0135717 0.0732803 0.100602 0 0 0 3.3311e-06 -4.79363e-06 -9.18622e-07 3.20112e-06 -5.83068e-06 -5.12492e-06 -0.000342336 -0.000361327 0.000100305 0.011 594.667 -1.51646 
219 1 0.0316308 0.0712544 0.11252 0 0 0 1.53424e-06 -1.58656e-06 1.22404e-06 2.19757e-06 1.36281e-06 -3.527e-07 -0.000240164 8.74854e-05 -0.00020018 0.011 594.066 -1.62946 
59 1 0.0506533 0.0683151 0.102673 0 0 0 1.50153e-06 2.63147e-06 6.76634e-06 -4.98747e-07 2.8844e-07 -4.40413e-06 0.000122536 -0.000597118 0.000582562 0.011 594.442 -1.55238 
158 1 0.0876351 0.0711541 0.112627 0 0 0 -1.06709e-06 5.01878e-06 6.33977e-06 -2.29661e-06 -1.22811e-06 -2.25394e-06 0.000855916 0.000197653 0.000176436 0.011 594.41 -1.56141 
176 1 0.0106113 0.0894531 0.114738 0 0 0 4.9985e-07 -8.90186e-07 -1.19095e-06 2.14134e-06 -1.86918e-06 -3.38586e-06 9.21121e-05 8.41018e-05 -2.68536e-05 0.011 593.982 -1.6707 
128 1 0.037596 0.0892797 0.102108 0 0 0 3.59251e-06 -1.2444e-07 -1.07246e-06 -1.47006e-06 -1.81556e-07 -9.87964e-07 0.000167479 -0.00018214 0.000398311 0.011 594.753 -1.47885 
37 1 0.0633731 0.0898712 0.105254 0 0 0 2.57803e-06 -1.05725e-06 -3.12915e-06 -2.84111e-06 -4.92501e-07 -1.15696e-06 0.000692793 -0.00031291 0.00031802 0.011 594.414 -1.56396 
211 1 0.0861892 0.0895475 0.101444 0 0 0 -1.27994e-06 3.50525e-07 4.88267e-06 1.81698e-06 1.12434e-06 -9.37746e-07 -0.000422626 -9.66526e-05 -0.000151136 0.011 594.432 -1.55637 
250 1 0.0102778 0.0141806 0.133064 0 0 0 -1.18487e-06 -2.53067e-07 4.49419e-07 1.53474e-06 -1.54316e-07 -2.68709e-06 0.000606312 -0.000475243 0.000135847 0.011 594.408 -1.56128 
87 1 0.0293527 0.0106178 0.123273 0 0 0 3.55057e-06 4.71638e-06 2.04297e-07 2.10919e-06 2.05844e-06 -5.33311e-06 0.000448082 -0.000905036 -0.000125642 0.011 594.403 -1.56391 
48 1 0.0483697 0.0154425 0.131907 0 0 0 -8.9324e-06 -2.30791e-06 1.85692e-05 1.67683e-06 -1.02151e-06 -6.49562e-06 -0.00071527 -0.0012949 -0.00102732 0.011 594.462 -1.53799 
215 1 0.0672476 0.0102587 0.123148 0 0 0 -2.72471e-05 9.09874e-06 -2.33618e-05 2.23332e-06 -4.04815e-07 -4.52755e-06 0.00258756 0.00774884 0.00140902 0.011 594.79 -1.48774 
242 1 0.0894667 0.0110423 0.1296 0 0 0 4.26335e-05 -9.93613e-06 4.24583e-05 -1.70444e-06 -9.68989e-07 -1.90335e-06 -0.00198976 -0.00258607 0.00103996 0.011 594.926 -1.42683 
175 1 0.0589635 0.029189 0.117541 0 0 0 -1.31996e-05 4.30208e-06 -4.23435e-06 1.40991e-06 -3.06586e-06 -1.16294e-05 -0.00260711 0.00131818 -0.000971943 0.011 594.865 -1.45558 
72 1 0.0799086 0.0263658 0.116908 0 0 0 -9.14697e-06 -1.87521e-05 3.45681e-05 1.81899e-06 -7.83038e-07 -8.03876e-06 -0.00504712 -0.00644521 -0.00322583 0.011 594.901 -1.44415 
82 1 0.010814 0.0371679 0.130155 0 0 0 -4.54989e-07 7.02769e-07 2.01465e-06 -4.64513e-07 -4.76681e-07 -2.07797e-06 0.000136346 -0.000100785 -1.86933e-05 0.011 594.373 -1.57779 
227 1 0.0401905 0.0345454 0.12545 0 0 0 -5.08761e-06 -4.49063e-07 -9.98574e-07 -2.51933e-06 -3.82502e-06 -1.17872e-05 -0.000468611 1.62182e-06 0.00141539 0.011 594.433 -1.55141 
67 1 0.0717983 0.0446652 0.1256 0 0 0 -2.508e-06 -3.37576e-06 -1.51527e-05 -1.93083e-06 -2.01233e-06 -9.17317e-06 -0.00106031 -0.00200941 -0.000691453 0.011 594.896 -1.44012 
24 1 0.0895707 0.0350322 0.133289 0 0 0 -1.21575e-05 2.18105e-06 1.21796e-05 -6.96666e-07 -9.96083e-07 -3.71108e-06 -0.000565498 0.00168657 -0.000688206 0.011 594.936 -1.41985 
151 1 0.051176 0.0661472 0.124506 0 0 0 -2.04417e-06 1.88102e-06 5.43146e-06 8.33294e-06 -1.40433e-05 -5.48444e-06 -0.00011149 -0.000167886 0.00322131 0.011 594.408 -1.56201 
205 1 0.0897512 0.0571854 0.12885 0 0 0 -2.94137e-07 1.25732e-06 8.98044e-06 -1.72053e-06 -3.37869e-06 -3.57038e-06 -0.00135467 0.000555355 -0.000188394 0.011 594.46 -1.53941 
66 1 0.0105903 0.0685173 0.120376 0 0 0 3.17959e-07 -4.19074e-07 1.21255e-07 7.43068e-07 -1.65628e-06 -2.25384e-06 -0.000140962 3.02219e-05 2.17963e-06 0.011 594.019 -1.65365 
154 1 0.0700191 0.0798266 0.122023 0 0 0 -9.52074e-07 -1.33369e-06 3.86227e-06 -3.93293e-06 -3.47032e-06 -1.858e-06 -0.00107435 -0.000323496 0.000119992 0.011 594.412 -1.55965 
113 1 0.0279089 0.0892587 0.127593 0 0 0 1.30893e-06 -2.05685e-07 4.30061e-07 2.04717e-06 1.83545e-07 1.96875e-06 -0.000105508 -0.000132724 0.000117183 0.011 593.944 -1.68915 
57 1 0.0486662 0.0879565 0.121136 0 0 0 1.68191e-06 -3.69878e-06 -1.73877e-06 3.53439e-06 5.81969e-06 2.02833e-06 -0.000414942 0.000322903 -0.000282971 0.011 593.981 -1.67112 
226 1 0.0894243 0.0898458 0.122582 0 0 0 -1.06743e-06 1.72087e-06 4.37576e-06 -1.80173e-06 -5.93711e-07 -8.01261e-07 -0.000288968 8.69083e-05 -8.23226e-05 0.011 594.41 -1.56104 
115 1 0.0349101 0.00967735 0.147786 0 0 0 -6.44995e-06 8.37587e-07 7.73e-06 1.90784e-06 -2.75429e-07 -2.84916e-06 0.000607247 0.000687926 0.000568153 0.011 594.42 -1.55302 
137 1 0.08073 0.0101881 0.148471 0 0 0 4.77086e-06 1.40318e-06 1.00549e-05 9.92505e-07 -1.47196e-06 5.52487e-08 0.000413766 -0.00121973 -0.000359403 0.011 594.913 -1.43076 
134 1 0.0263017 0.0262731 0.139304 0 0 0 -5.04003e-06 -5.24416e-07 6.62577e-06 2.06942e-06 -7.64738e-07 -4.13062e-06 -0.000680276 -0.000261587 -0.000398069 0.011 594.41 -1.56018 
129 1 0.0507489 0.0308356 0.146554 0 0 0 -4.57748e-06 -6.43435e-07 2.11747e-06 2.4382e-06 -3.8868e-06 -4.80141e-06 -0.000579897 0.00057377 -0.000348854 0.011 594.852 -1.45603 
75 1 0.0700299 0.0264402 0.137482 0 0 0 -2.72011e-06 -2.75249e-06 1.57128e-06 7.82825e-07 -3.1971e-06 -7.06081e-06 0.000459126 -0.000790607 0.0011997 0.011 594.936 -1.4195 
198 1 0.0289119 0.0475842 0.137643 0 0 0 -4.3717e-06 -1.57197e-06 -1.04282e-07 3.9265e-07 -1.72838e-06 -7.75684e-06 -0.00018618 0.00062671 -0.000222429 0.011 594.34 -1.59048 
244 1 0.0620009 0.0485663 0.144287 0 0 0 -2.2001e-06 -9.05379e-07 -6.74325e-06 2.82395e-07 -4.08052e-06 -4.97152e-06 0.00105409 0.00145428 -0.000393331 0.011 594.862 -1.45453 
135 1 0.0847492 0.0491535 0.148405 0 0 0 -1.23121e-06 3.74112e-06 1.04131e-05 1.74948e-06 -1.70737e-06 -1.85924e-06 0.000372037 -0.000732883 0.00015827 0.011 594.878 -1.44657 
71 1 0.009913 0.0567029 0.137454 0 0 0 -9.38401e-07 4.75721e-07 1.95613e-06 6.48563e-07 -7.14443e-07 -1.0176e-06 -6.6244e-05 -0.00016931 -3.21215e-05 0.011 594.021 -1.65092 
10 1 0.0453635 0.0626075 0.145413 0 0 0 -8.39757e-07 1.44435e-07 5.31433e-06 2.72546e-06 1.5357e-07 -2.68833e-06 -0.000415122 -0.000255037 0.000279099 0.011 594.024 -1.64928 
17 1 0.0720906 0.0654358 0.136836 0 0 0 -1.79075e-06 4.16419e-06 4.46579e-06 -1.47048e-06 -3.38561e-06 -2.16484e-06 0.000453374 -0.000340522 0.000200002 0.011 594.444 -1.54585 
29 1 0.0105471 0.0805238 0.137846 0 0 0 4.32054e-07 7.42788e-08 1.80585e-07 1.13098e-06 2.83747e-07 -1.71839e-06 7.70971e-05 -2.18373e-05 3.94772e-06 0.011 593.95 -1.68443 
132 1 0.0280527 0.0685314 0.133565 0 0 0 2.44307e-08 -9.27564e-07 7.27903e-07 1.32809e-06 -1.06639e-06 -2.34653e-06 0.000159214 -0.000135036 -0.000210296 0.011 593.977 -1.67198 
170 1 0.0351473 0.0822773 0.148395 0 0 0 -4.7442e-07 -3.38223e-06 3.4754e-06 9.70475e-06 -1.08814e-05 4.25967e-06 0.000364895 0.000460234 0.000662487 0.011 593.95 -1.6862 
173 1 0.0556915 0.0812715 0.140677 0 0 0 2.23533e-07 1.95384e-07 1.30595e-06 7.91329e-06 4.93894e-06 -1.83677e-06 -0.000249489 -0.000256734 -0.00029393 0.011 594.366 -1.58349 
50 1 0.079964 0.0848755 0.140415 0 0 0 -1.41175e-06 3.14625e-06 4.71737e-06 -1.64968e-06 -2.44273e-06 -1.09239e-06 0.000164387 0.000127011 -0.0002275 0.011 594.407 -1.56289 
252 1 0.0111188 0.0113921 0.154229 0 0 0 -0.000380561 -7.8663e-05 6.83428e-06 7.92667e-06 -1.32329e-06 -3.10951e-06 -0.0186151 0.0491384 -0.63428 0.011 594.448 -1.54129 
101 1 0.0483183 0.0164208 0.161937 0 0 0 -2.21091e-06 1.89904e-06 3.27113e-06 1.55013e-06 -5.38597e-07 -2.59067e-06 9.90578e-05 7.41974e-05 4.97277e-05 0.011 594.544 -1.50123 
171 1 0.068159 0.0101683 0.164893 0 0 0 -2.1233e-06 1.71916e-06 2.19372e-06 9.11512e-07 7.99357e-08 -1.98936e-07 -3.17057e-05 -5.56506e-05 -1.05654e-05 0.011 594.826 -1.46633 
248 1 0.0894612 0.028793 0.153384 0 0 0 1.4956e-06 1.33564e-06 8.54408e-06 5.2861e-07 -1.71525e-06 -1.30553e-06 -7.62537e-05 0.000200138 0.000258482 0.011 594.906 -1.43326 
136 1 0.0107572 0.0375703 0.151741 0 0 0 -7.50189e-07 1.15985e-06 1.03639e-06 7.35904e-07 2.95827e-06 -2.9139e-06 -0.000186223 -9.50751e-06 0.00010503 0.011 594.439 -1.54621 
193 1 0.0326597 0.0374634 0.156005 0 0 0 -1.41194e-06 2.37464e-06 2.65248e-06 4.3898e-06 8.88713e-07 -5.30729e-06 -1.8155e-05 1.74064e-06 -6.96698e-05 0.011 594.504 -1.51996 
179 1 0.0690768 0.0337246 0.158039 0 0 0 -2.73021e-06 -3.55454e-07 -2.34112e-06 1.16098e-06 -3.21818e-06 -5.4627e-06 -0.00110048 -0.000422117 -0.000167827 0.011 594.908 -1.4319 
74 1 0.0226521 0.0610595 0.153408 0 0 0 -3.4967e-07 5.51757e-07 1.74609e-06 3.46365e-06 -2.29885e-07 -3.85107e-06 -5.24878e-05 9.58449e-05 3.85648e-05 0.011 594.066 -1.63103 
197 1 0.0658651 0.0673482 0.156421 0 0 0 -2.98397e-06 1.11686e-06 4.03003e-06 1.75707e-06 7.16622e-07 2.38425e-07 -0.000158787 7.18139e-05 9.11099e-05 0.011 594.371 -1.57849 
76 1 0.0871348 0.0694825 0.153393 0 0 0 -3.15685e-06 1.87366e-06 6.60292e-06 2.85708e-06 -7.48675e-07 -1.04853e-06 -0.000443876 -0.000101288 -0.000149763 0.011 594.409 -1.56212 
56 1 0.0141631 0.0895893 0.156584 0 0 0 4.07349e-07 -6.78612e-08 5.26957e-07 -1.12508e-07 3.21275e-08 -1.1195e-06 -5.06592e-05 2.43258e-05 4.54242e-05 0.011 594.026 -1.64931 
65 1 0.0463631 0.0894547 0.165194 0 0 0 -4.72375e-08 -3.4245e-07 1.99244e-06 8.75556e-06 -1.72728e-06 1.86338e-06 -0.000206462 -0.000123066 2.90366e-05 0.011 593.98 -1.6706 
119 1 0.0672239 0.0892554 0.157398 0 0 0 -9.48627e-07 1.13717e-06 2.40409e-06 1.77572e-06 -1.65773e-06 3.17345e-06 -5.59377e-05 -0.000115422 -2.92796e-05 0.011 594.373 -1.57957 
236 1 0.0897944 0.0897936 0.158445 0 0 0 -1.79314e-07 8.39292e-07 1.54162e-06 -1.45365e-07 -2.57961e-08 -3.09304e-07 -6.60879e-05 8.38501e-05 -5.44545e-05 0.011 594.366 -1.58227 
107 1 0.0115113 0.0106735 0.175587 0 0 0 -2.34315e-05 -1.62958e-06 4.42491e-06 6.23155e-07 -5.13946e-07 -2.46041e-06 -3.35001e-05 0.00461486 0.00179748 0.011 594.941 -1.4223 
81 1 0.0347423 0.0105196 0.177323 0 0 0 1.74382e-06 6.74535e-07 2.96768e-06 3.71379e-07 2.26471e-07 -1.62012e-06 0.000169568 0.000485424 -4.86838e-05 0.011 594.931 -1.42668 
143 1 0.0894264 0.012201 0.168141 0 0 0 -9.55536e-07 1.60435e-06 5.85026e-06 5.54518e-07 4.37348e-07 1.88545e-08 -0.000682602 0.000369112 -0.000144329 0.011 594.536 -1.51539 
31 1 0.040482 0.0312282 0.174774 0 0 0 -1.4159e-06 1.14678e-06 3.20697e-06 1.7618e-06 9.2792e-07 -3.29063e-06 -9.80399e-06 -4.83618e-05 -6.86228e-06 0.011 594.864 -1.45482 
144 1 0.0608949 0.0261753 0.176072 0 0 0 -1.80207e-06 3.41369e-06 1.73316e-06 2.95068e-07 1.13938e-06 -2.24141e-06 9.19592e-05 0.000300178 0.000271859 0.011 594.574 -1.50117 
131 1 0.018109 0.0343135 0.171719 0 0 0 -1.50372e-06 1.92693e-06 9.57897e-07 1.90201e-06 3.59466e-06 -4.70664e-06 0.000150866 -6.88579e-05 -2.76988e-05 0.011 594.904 -1.43995 
38 1 0.0520549 0.0478706 0.182608 0 0 0 -1.46859e-06 6.71065e-07 3.26435e-06 -1.74486e-06 2.68454e-06 1.08023e-06 -1.38676e-05 -5.73992e-05 -8.52923e-06 0.011 594.511 -1.53069 
55 1 0.0892417 0.0412926 0.170438 0 0 0 -2.78749e-07 1.26631e-06 3.3235e-06 -9.33675e-08 -2.11847e-07 -3.80429e-07 -0.000161488 -7.0129e-06 5.72486e-05 0.011 594.485 -1.54164 
124 1 0.0106761 0.0599138 0.174834 0 0 0 -2.90156e-07 7.94682e-07 1.09967e-06 1.31124e-06 -5.92829e-07 -2.56947e-06 -3.9468e-05 -7.56267e-05 7.25176e-05 0.011 594.704 -1.47982 
196 1 0.0303947 0.0519038 0.171181 0 0 0 -7.62317e-07 1.31922e-06 2.7796e-06 3.22871e-06 2.06134e-06 -3.33264e-06 4.16645e-05 -7.42196e-05 -4.72453e-05 0.011 594.658 -1.50114 