ITEM: TIMESTEP
300000
ITEM: NUMBER OF ATOMS
1005
ITEM: BOX BOUNDS mm mm mm
0 0.1
0 0.1
0 1.1
ITEM: ATOMS id type x y z ix iy iz vx vy vz fx fy fz omegax omegay omegaz radius f_Temp[0] f_heatFlux[0] 
152 1 0.0254472 0.0104912 0.010222 0 0 0 1.57399e-06 1.59515e-06 3.22985e-06 -2.02452e-07 -1.05835e-07 -2.21908e-07 -0.000170959 -0.000277642 0.000258917 0.011 590.72 -2.5947 
97 1 0.0100959 0.0228962 0.0166303 0 0 0 -4.94326e-07 7.29564e-07 -7.87321e-07 -3.21874e-08 -1.88843e-08 -5.19751e-08 -0.000183379 7.44252e-05 3.98438e-05 0.011 590.764 -2.56266 
231 1 0.0360318 0.0295067 0.0103012 0 0 0 -8.52121e-06 2.40469e-06 -2.63208e-06 -6.94242e-07 -6.26732e-07 2.6472e-07 -0.000320651 -0.000663857 0.000448624 0.011 590.732 -2.58626 
89 1 0.0620416 0.0171546 0.0104258 0 0 0 1.29572e-05 -4.16657e-06 -1.11465e-05 -3.78983e-07 -8.20657e-07 2.93967e-08 0.0005159 0.000796074 0.000830011 0.011 589.427 -2.92982 
216 1 0.0812374 0.026959 0.00999566 0 0 0 1.27694e-05 -1.33263e-07 -2.69885e-05 2.97214e-07 -3.06658e-06 1.57864e-06 -0.000807078 0.00197463 -0.000886449 0.011 589.361 -2.95804 
155 1 0.0150043 0.0423283 0.0103378 0 0 0 9.00298e-07 -2.70731e-07 -1.26637e-06 2.06389e-07 -3.30744e-09 -4.12733e-08 4.35146e-05 7.43602e-05 -0.000241672 0.011 590.77 -2.56701 
79 1 0.0644521 0.046088 0.0105438 0 0 0 2.28669e-05 3.92005e-06 6.21652e-06 2.83374e-07 -1.07141e-06 -6.33381e-07 0.000472147 0.000714368 -0.00406388 0.011 589.664 -2.80575 
180 1 0.0339229 0.0582288 0.0104702 0 0 0 2.91399e-06 1.17119e-06 -9.32912e-07 3.93376e-07 1.71916e-07 1.63209e-08 -7.60672e-05 0.000287285 7.69813e-05 0.011 591.283 -2.42876 
33 1 0.0814176 0.0599245 0.0102614 0 0 0 5.10284e-05 5.66195e-05 -3.05296e-05 -7.94863e-07 2.45844e-08 1.4605e-07 -0.00442251 0.00550224 0.00835821 0.011 591.921 -2.27446 
2 1 0.0105505 0.0718177 0.00973627 0 0 0 1.01773e-06 -3.21586e-07 -5.66726e-07 1.31276e-07 -4.21984e-09 -2.35304e-08 7.78639e-05 9.71045e-05 3.61005e-05 0.011 591.288 -2.42496 
30 1 0.0423261 0.0807625 0.01 0 0 0 1.82911e-06 4.96167e-07 -2.35129e-07 1.93791e-07 7.61292e-08 -1.82016e-08 -5.78689e-05 0.000184214 -0.000274121 0.011 591.328 -2.40731 
253 1 0.0601199 0.0675847 0.0106243 0 0 0 1.22433e-05 2.69951e-06 -3.89843e-06 -2.58912e-07 -8.04686e-07 -4.19936e-08 -0.00016844 0.000567667 0.00248885 0.011 591.936 -2.26733 
25 1 0.0890672 0.0801577 0.00996756 0 0 0 -7.17242e-06 3.23753e-05 -2.03396e-05 -2.45908e-07 -4.26796e-09 4.28463e-08 -0.000147322 -0.00164098 -0.00365851 0.011 592.011 -2.2254 
233 1 0.0222915 0.0895166 0.0118684 0 0 0 7.48569e-07 2.80591e-07 9.95261e-08 9.82345e-08 6.36318e-08 2.12247e-09 -6.69253e-06 -0.000102604 8.80241e-05 0.011 591.273 -2.43672 
192 1 0.0689574 0.0890016 0.0109512 0 0 0 3.36555e-06 1.76309e-05 -5.69376e-06 3.8289e-07 -5.21632e-08 6.97421e-08 -0.00129 0.000869691 0.00353325 0.011 591.998 -2.23518 
166 1 0.0440602 0.0107332 0.0202804 0 0 0 1.7057e-05 2.43539e-06 1.48738e-06 -6.07685e-07 -1.45364e-07 -3.35336e-08 -0.000713671 0.00175966 -0.0012275 0.011 590.575 -2.66304 
203 1 0.06273 0.0103231 0.0310015 0 0 0 2.32906e-05 -6.13143e-06 -1.19656e-05 -2.71058e-07 -6.61856e-07 -8.51807e-07 -0.00113502 -0.000701901 -0.00129647 0.011 589.464 -2.90215 
234 1 0.088846 0.0102824 0.0207316 0 0 0 1.76024e-05 1.16657e-05 -1.82925e-05 -7.65653e-08 -9.14006e-07 -5.60526e-07 -0.00288873 0.0034817 -0.00197915 0.011 589.352 -2.96565 
22 1 0.0674542 0.0308913 0.0259832 0 0 0 -2.95653e-06 -7.72762e-06 -1.60824e-05 -2.39488e-07 -3.1651e-07 -7.70796e-07 0.00110374 -0.00134428 0.00168562 0.011 589.483 -2.88919 
104 1 0.0246178 0.0349093 0.0292664 0 0 0 4.0971e-06 4.26836e-06 -9.78418e-07 8.30706e-07 -4.64081e-07 4.1405e-07 9.10416e-05 -0.000261062 -4.35838e-05 0.011 590.792 -2.54673 
35 1 0.0463014 0.034386 0.028072 0 0 0 -1.35246e-06 -7.62823e-06 -1.20379e-05 5.20199e-07 -5.45272e-07 -4.21522e-07 0.000274603 0.00145417 -0.00180916 0.011 590.808 -2.54357 
147 1 0.089608 0.0357677 0.027072 0 0 0 -1.08417e-05 5.2485e-05 -8.12866e-05 3.36057e-07 -2.78066e-06 2.62731e-06 -0.00731892 -0.00785168 -0.00279016 0.011 589.592 -2.83904 
8 1 0.0158778 0.0580097 0.0245505 0 0 0 3.50852e-06 -2.31404e-07 -1.83316e-06 5.09489e-07 1.17999e-09 -9.24637e-08 -1.39175e-05 5.11062e-06 -3.62493e-06 0.011 591.217 -2.45692 
63 1 0.036275 0.053195 0.0311909 0 0 0 1.07677e-05 1.44148e-07 -3.35716e-06 8.46263e-07 -9.47026e-08 -1.02469e-07 0.000121655 0.000370592 0.000236196 0.011 591.45 -2.35378 
99 1 0.0576224 0.0556974 0.0284724 0 0 0 2.10469e-05 2.50023e-05 -2.6458e-06 1.01913e-06 5.68054e-08 8.02301e-08 -0.00234402 -0.00155572 0.00212929 0.011 591.956 -2.25871 
224 1 0.0872011 0.0564751 0.0302891 0 0 0 1.83065e-05 7.02625e-05 -7.76896e-05 -4.95738e-07 -1.12809e-06 -6.83132e-07 0.00792201 -0.011781 -0.00658777 0.011 591.875 -2.28736 
126 1 0.0103591 0.0787914 0.0293282 0 0 0 4.88893e-07 -2.99035e-07 -8.11276e-07 8.05236e-08 -2.19316e-08 -6.80655e-09 -0.000151104 -6.52954e-05 1.39874e-06 0.011 591.577 -2.28957 
163 1 0.0308219 0.0731116 0.0256591 0 0 0 2.86921e-06 9.06826e-07 1.08399e-07 3.39927e-07 1.38794e-07 1.21635e-07 0.000161162 -1.94831e-05 0.000186513 0.011 591.337 -2.39133 
12 1 0.0745013 0.073443 0.0257547 0 0 0 2.65806e-05 4.45408e-05 -3.09835e-05 -8.29094e-07 -2.51213e-07 4.74969e-07 0.00177649 0.0041278 0.00631374 0.011 592.008 -2.22792 
257 1 0.0531551 0.0892638 0.0262308 0 0 0 2.39426e-06 2.14076e-06 -1.52659e-06 9.99356e-08 -1.91679e-08 9.40192e-09 -0.000118918 -9.6485e-05 0.000399453 0.011 591.96 -2.25085 
243 1 0.0892875 0.0891916 0.028631 0 0 0 -1.66875e-06 2.1249e-05 -1.16147e-05 -8.47242e-08 -7.24172e-08 -1.76349e-08 0.00175937 -0.000500111 -0.00185627 0.011 592.209 -2.13148 
223 1 0.0366983 0.0106926 0.0405217 0 0 0 4.05488e-05 1.43031e-05 2.30054e-05 -4.9604e-07 1.85639e-08 -4.16588e-07 0.00195768 -0.000574368 -0.00354169 0.011 590.869 -2.51236 
70 1 0.0104575 0.0206616 0.0372903 0 0 0 3.77585e-06 2.89842e-06 -1.6862e-06 2.82796e-07 -1.74991e-07 -4.09075e-09 6.60259e-05 0.000292502 0.000149047 0.011 591.235 -2.34341 
45 1 0.0533476 0.0234873 0.0450358 0 0 0 7.79797e-05 1.97736e-05 -3.07477e-05 8.27528e-07 -1.35217e-06 5.45816e-07 -0.0039511 0.0084407 0.00193119 0.011 590.062 -2.62763 
108 1 0.0809232 0.0194416 0.0384415 0 0 0 2.98982e-05 8.90991e-05 -2.64752e-05 -3.30055e-06 -8.83938e-06 6.28344e-06 -0.00621352 0.00249881 0.00942827 0.011 589.65 -2.82216 
96 1 0.0118125 0.0470097 0.0420234 0 0 0 2.63586e-06 2.20507e-06 -2.69523e-06 3.84566e-07 6.15593e-08 -1.73163e-07 -0.000153718 -2.87865e-05 -3.81849e-05 0.011 591.092 -2.40565 
9 1 0.0408228 0.0409412 0.0478626 0 0 0 2.76062e-05 -2.83413e-06 -5.46241e-06 1.03767e-06 -1.46032e-07 -6.14908e-07 -9.72187e-05 0.00067494 0.0015518 0.011 593.714 -1.87103 
80 1 0.075505 0.042754 0.041721 0 0 0 4.34404e-05 0.000116236 -0.000123485 -1.56153e-07 -2.89014e-06 -2.96009e-06 -0.00894495 0.0177617 0.0119144 0.011 590.213 -2.56755 
146 1 0.0234891 0.0652287 0.0441921 0 0 0 2.54145e-06 -9.86991e-07 -3.23121e-06 4.39883e-07 -6.29133e-08 -7.71986e-09 0.00016076 -0.000162812 -2.97485e-05 0.011 591.734 -2.21104 
182 1 0.0584028 0.0528234 0.0495923 0 0 0 1.36853e-05 3.34748e-05 -1.35279e-05 1.00331e-06 -8.45901e-08 5.49333e-07 0.00239399 -3.24506e-05 0.00293777 0.011 593.895 -1.81735 
240 1 0.0106826 0.0818066 0.0498455 0 0 0 -1.54768e-06 6.01874e-07 -1.34278e-06 -3.77436e-08 -1.00907e-07 1.88046e-08 5.00736e-05 2.45201e-05 0.000221031 0.011 594.227 -1.72639 
204 1 0.0466075 0.0738919 0.040682 0 0 0 1.92716e-06 1.88977e-05 -1.71839e-06 3.53948e-07 9.90805e-07 -1.25294e-08 0.000990894 0.000136173 0.00326473 0.011 591.465 -2.33474 
78 1 0.0692243 0.070898 0.0483652 0 0 0 -5.03471e-06 3.10097e-05 2.55576e-06 1.50426e-07 3.54193e-07 1.70759e-06 -0.00184176 -0.000223204 -0.00166551 0.011 594.22 -1.66877 
212 1 0.0899723 0.0687316 0.0468705 0 0 0 -1.06491e-05 6.428e-07 -2.08631e-06 2.9667e-07 -5.00761e-07 4.13638e-07 -0.000212875 0.000734222 -0.000822535 0.011 594.168 -1.69926 
32 1 0.0268324 0.0897765 0.037709 0 0 0 -2.06325e-06 1.21235e-06 5.26288e-07 -1.5546e-07 4.24598e-08 1.48107e-07 -0.00019519 -0.000540406 -1.51637e-05 0.011 591.678 -2.23725 
34 1 0.0702597 0.0898166 0.0390866 0 0 0 2.71399e-06 1.07341e-05 -6.28036e-06 -1.03165e-07 -1.11681e-07 8.43899e-08 0.000575432 0.000454794 0.000538889 0.011 592.294 -2.09276 
217 1 0.0892415 0.0898425 0.0494495 0 0 0 -7.85462e-07 1.63608e-06 -4.7422e-06 1.31894e-08 -1.75041e-07 -1.2524e-07 0.000231903 -5.31294e-05 -0.000230293 0.011 594.109 -1.71462 
258 1 0.0129916 0.0100017 0.0550993 0 0 0 -4.9416e-08 2.63171e-06 -2.18394e-06 3.05487e-07 -1.23654e-07 6.71698e-09 -0.000157512 -0.000739406 0.000101701 0.011 593.982 -1.74613 
164 1 0.0340183 0.0103399 0.0619123 0 0 0 -1.42038e-05 -5.36922e-06 1.24979e-05 1.07642e-06 5.72808e-08 -1.47403e-07 0.000857351 -0.00440018 0.00134149 0.011 594.058 -1.71583 
15 1 0.0686469 0.010954 0.0545423 0 0 0 4.87707e-05 2.96463e-05 -1.32697e-05 2.04216e-07 -4.66068e-06 -2.16546e-06 0.000718685 -0.00648193 -0.00264914 0.011 592.844 -2.03562 
64 1 0.0256329 0.0267075 0.0511047 0 0 0 1.32111e-05 -3.1636e-06 -4.83867e-07 8.03374e-07 -2.73979e-07 -3.55045e-07 -0.000261265 -0.000443389 -0.00149321 0.011 594.013 -1.74006 
191 1 0.0895739 0.0318871 0.0533646 0 0 0 -2.50786e-05 0.000183199 -6.50056e-05 -8.22349e-07 4.66312e-06 3.3741e-06 -0.0152824 -0.0299373 -0.0339854 0.011 592.537 -2.17064 
199 1 0.0102992 0.0380889 0.0609945 0 0 0 2.41971e-06 4.38671e-06 -3.07781e-06 3.90855e-07 -2.08595e-07 -1.66976e-07 2.44256e-05 -0.000145541 0.000319085 0.011 594.001 -1.73556 
123 1 0.0652353 0.0343351 0.0585742 0 0 0 4.50445e-05 9.07899e-05 -4.00229e-05 1.71006e-06 1.83011e-06 -1.11692e-06 -0.000318585 -0.0128945 0.00492014 0.011 592.642 -2.11116 
43 1 0.0106011 0.0604899 0.0611533 0 0 0 1.44268e-06 2.05242e-06 -1.02021e-06 1.03379e-07 -2.88941e-07 -5.72449e-08 -0.000988372 9.41664e-05 0.000256548 0.011 594.653 -1.53025 
161 1 0.03945 0.0598855 0.0574857 0 0 0 5.66182e-06 6.80036e-06 -9.41373e-06 3.35619e-07 -6.37093e-07 2.97393e-08 -0.00105036 0.000642036 0.000475413 0.011 594.452 -1.62744 
92 1 0.0894379 0.0558542 0.0648081 0 0 0 -1.79617e-05 9.24246e-05 3.78566e-05 1.76048e-06 1.335e-05 2.6326e-06 -0.0146941 0.00273757 -0.0121888 0.011 594.341 -1.60341 
54 1 0.0259862 0.0756814 0.0637091 0 0 0 -4.91419e-06 3.94276e-06 -1.19083e-06 -9.28725e-08 -2.1616e-07 3.03675e-07 0.00062747 -0.000476363 0.0005065 0.011 594.757 -1.48884 
185 1 0.053457 0.0751317 0.0613724 0 0 0 -1.0062e-05 1.86791e-05 4.56343e-07 -1.39125e-06 1.39459e-07 9.0229e-07 0.00142546 -0.000681546 0.00329745 0.011 594.34 -1.61244 
4 1 0.0399263 0.0897069 0.0543667 0 0 0 -1.21241e-05 1.95552e-06 4.39944e-06 -7.27455e-07 -2.60699e-07 2.737e-07 -0.000315413 -0.000112966 -0.00102247 0.011 594.467 -1.61825 
103 1 0.0875764 0.0164457 0.0675416 0 0 0 -0.0148124 0.00201737 -0.000109546 0.000162805 0.000469769 0.000316382 0.366725 2.67739 -4.23255 0.011 592.972 -1.97286 
52 1 0.0140776 0.0209841 0.0728807 0 0 0 -1.72754e-05 3.2612e-06 -2.00097e-06 8.65792e-07 -2.04687e-07 -1.38808e-07 6.98997e-05 -0.00130556 -0.000346627 0.011 594.248 -1.62199 
28 1 0.0400638 0.0320448 0.0674214 0 0 0 -1.08621e-05 -1.29056e-05 -5.69498e-08 1.4812e-06 5.93029e-07 -6.42461e-07 0.00044897 -0.00319495 -0.00184267 0.011 594.189 -1.64876 
232 1 0.033357 0.0175479 0.0819453 0 0 0 -5.27769e-05 -4.62118e-06 9.3305e-06 2.05509e-06 2.1272e-08 -1.07848e-07 -0.00102484 0.000453527 -0.00164232 0.011 594.203 -1.63719 
153 1 0.0266106 0.0487989 0.0697432 0 0 0 5.10009e-06 3.54881e-06 -2.02419e-06 3.16094e-07 -3.86852e-07 -1.08197e-07 0.000892941 0.000264746 -0.000289275 0.011 594.34 -1.58089 
140 1 0.0580427 0.0362373 0.0784946 0 0 0 -1.61671e-05 5.43194e-05 -4.01003e-05 2.95907e-06 -1.60401e-06 -2.26071e-06 -0.00181139 0.00637453 0.00844468 0.011 593.244 -1.84139 
189 1 0.0810368 0.0375983 0.072333 0 0 0 -4.97543e-05 5.93637e-05 -7.59717e-06 9.15811e-07 1.4339e-05 -4.0717e-08 0.0274615 0.0116208 0.0102032 0.011 593.122 -1.90095 
200 1 0.0104472 0.0513289 0.0831917 0 0 0 -7.8414e-07 -7.20185e-07 1.87963e-06 2.66882e-07 -2.51877e-08 -7.53451e-08 0.000759152 -0.000284969 -0.000648818 0.011 594.734 -1.48747 
157 1 0.0560384 0.0559522 0.0707407 0 0 0 -2.59509e-05 1.1556e-06 -1.05952e-05 3.35934e-07 1.1527e-07 1.76757e-06 0.00150684 -0.0027141 -0.00553184 0.011 594.357 -1.60201 
14 1 0.01046 0.0722664 0.0801941 0 0 0 -5.31066e-07 1.96113e-06 3.65863e-06 3.67042e-08 -1.01463e-07 -2.80631e-07 -0.000448218 -0.000429396 0.000458049 0.011 594.793 -1.46265 
69 1 0.0401964 0.068419 0.078552 0 0 0 -2.5135e-06 1.06659e-05 -1.45241e-06 -4.99857e-07 -5.38792e-07 3.35453e-07 0.000801235 0.00109476 0.0015409 0.011 594.782 -1.46656 
85 1 0.0738112 0.0699012 0.0696538 0 0 0 3.67838e-05 9.38909e-05 -1.18515e-05 7.73569e-06 1.14004e-05 2.151e-07 -0.000557954 0.00492306 0.0117368 0.011 594.425 -1.56266 
209 1 0.0105735 0.0898516 0.0690394 0 0 0 -2.1636e-06 -7.11971e-08 -1.61378e-07 -7.44831e-08 -5.83318e-08 3.81517e-08 -2.31398e-05 2.88677e-05 -0.000150244 0.011 594.767 -1.48167 
127 1 0.0374779 0.0896611 0.075338 0 0 0 -8.81911e-06 3.81589e-06 4.74873e-06 -2.77663e-07 2.85835e-10 3.91743e-07 -0.000195465 5.73724e-05 -0.000481759 0.011 594.759 -1.48038 
183 1 0.0653233 0.0896845 0.0712187 0 0 0 -2.77109e-05 1.91383e-05 5.47133e-06 -2.60753e-06 1.49927e-06 6.00612e-07 -0.0003364 0.00151465 -0.0021815 0.011 594.432 -1.55757 
194 1 0.0893173 0.0897645 0.0700219 0 0 0 1.99599e-06 -1.29675e-06 -2.54527e-06 6.23707e-08 -4.4381e-08 1.18445e-07 0.00015604 0.000183714 0.000249501 0.011 594.41 -1.57374 
187 1 0.0105537 0.010344 0.09084 0 0 0 -1.02084e-05 -4.09252e-07 -4.54793e-07 4.0279e-07 4.76043e-08 -1.58499e-08 0.000137776 0.000342422 0.00050643 0.011 594.291 -1.59303 
229 1 0.0868256 0.00985521 0.0875347 0 0 0 -0.000417353 1.28083e-06 -0.000204225 9.94671e-06 3.76859e-06 1.08848e-05 -0.0170221 0.0834048 0.0398545 0.011 593.123 -1.89263 
58 1 0.0107813 0.0316265 0.0910417 0 0 0 -1.50785e-05 4.15457e-07 -4.65805e-06 5.92888e-07 -4.03416e-08 9.96085e-08 -0.000186612 0.00114456 5.19464e-05 0.011 594.324 -1.57796 
53 1 0.0528279 0.018763 0.0909084 0 0 0 -0.000102753 0.000130884 8.51307e-06 3.51691e-06 -1.5519e-06 -1.81121e-07 0.00661703 0.00022757 0.0188664 0.011 593.201 -1.85079 
167 1 0.0729609 0.0255407 0.0880394 0 0 0 -0.000149872 3.59542e-07 2.64574e-05 5.76918e-06 8.60935e-07 -6.47764e-07 -0.0144679 -0.00274663 -0.0315966 0.011 593.068 -1.90508 
49 1 0.0307636 0.0381405 0.0876043 0 0 0 -2.86201e-05 -1.34673e-06 4.26669e-06 1.18079e-06 -5.81073e-07 1.35394e-07 -0.00048904 -0.0034713 -0.000945423 0.011 594.306 -1.5876 
39 1 0.0897522 0.0377409 0.0918707 0 0 0 1.01361e-05 -8.13246e-05 -2.27895e-05 2.40708e-07 3.01555e-06 -2.13157e-07 -0.00461629 -0.00343475 0.00839648 0.011 593.243 -1.83446 
102 1 0.0284136 0.0591569 0.0943146 0 0 0 -1.00009e-05 3.93712e-07 7.70654e-06 1.62358e-07 -9.14235e-07 2.94497e-09 -0.000195061 -0.00149044 -0.00117486 0.011 594.781 -1.4682 
47 1 0.0478037 0.0509486 0.0901401 0 0 0 -2.57006e-05 4.00559e-07 -1.83772e-06 1.1294e-06 -1.58847e-06 1.14729e-06 0.000609165 0.00354422 0.00103442 0.011 594.636 -1.53487 
255 1 0.0724698 0.0533006 0.0843196 0 0 0 -4.00381e-05 -1.74143e-05 5.65727e-05 -2.60083e-06 2.59373e-06 4.1765e-06 -0.0156889 -0.000545585 -0.00511317 0.011 594.319 -1.61319 
260 1 0.0897775 0.0584194 0.0958558 0 0 0 -1.78855e-05 -1.18173e-05 -9.59917e-06 3.25044e-07 8.89419e-07 1.36465e-06 0.00235305 0.00145919 -0.00204494 0.011 594.357 -1.5934 
93 1 0.0702563 0.0726114 0.0941203 0 0 0 -2.59612e-06 1.14315e-05 -1.00743e-05 3.45714e-07 1.61301e-06 1.0679e-06 0.00464764 -0.000638337 0.000301048 0.011 594.432 -1.55664 
133 1 0.0892945 0.0761732 0.0853082 0 0 0 1.2448e-06 4.67098e-06 1.86476e-06 2.02913e-07 8.91638e-07 9.82286e-07 -0.00087019 0.000327889 -0.00128371 0.011 594.428 -1.56006 
256 1 0.0207011 0.0893779 0.0883457 0 0 0 -5.53882e-06 4.25649e-06 2.73904e-06 -1.30849e-07 -1.04544e-07 6.85763e-08 -9.42335e-05 -0.000217784 -0.000122113 0.011 594.797 -1.45946 
6 1 0.0531528 0.0837567 0.0878197 0 0 0 -1.00754e-05 8.29359e-06 8.26734e-06 -5.73113e-07 5.39641e-07 9.35142e-07 0.00154909 -0.000526732 0.00175351 0.011 594.472 -1.53813 
246 1 0.0105987 0.0104836 0.11218 0 0 0 -4.70875e-06 -3.81625e-06 2.73407e-06 2.21324e-07 6.85844e-08 2.22748e-08 -0.000150253 4.31052e-05 -0.000383073 0.011 594.393 -1.56937 
149 1 0.0295201 0.0106071 0.101695 0 0 0 -2.59114e-05 1.75483e-06 1.17594e-05 9.63683e-07 -4.60535e-08 -1.56891e-07 0.0012888 0.000187292 0.00234076 0.011 594.293 -1.59329 
156 1 0.0493613 0.0107069 0.110754 0 0 0 -9.43628e-06 6.03459e-06 -4.09167e-06 8.34234e-07 -9.52601e-08 5.71716e-07 0.000904874 0.0021179 0.000874941 0.011 594.37 -1.58078 
91 1 0.0702358 0.0100934 0.101846 0 0 0 -7.52076e-05 1.17589e-05 7.84264e-05 1.29771e-06 9.12067e-07 2.22111e-06 0.00556648 0.0156675 0.0104801 0.011 593.26 -1.82561 
241 1 0.090099 0.0104281 0.108618 0 0 0 4.83338e-05 4.80355e-05 -7.76644e-05 -1.39967e-06 -2.68806e-06 3.67619e-06 0.00460425 -0.0121933 -0.00371688 0.011 594.68 -1.53881 
139 1 0.0164454 0.031048 0.111083 0 0 0 -1.05378e-06 -1.51729e-06 -3.30479e-06 1.38932e-07 8.33971e-08 1.15873e-07 0.00011676 0.000219345 3.54076e-05 0.011 594.395 -1.56821 
249 1 0.0399654 0.0294895 0.104757 0 0 0 -5.93221e-05 7.44952e-07 1.94551e-05 1.50679e-06 -1.74054e-07 2.60351e-08 -0.00171114 0.00448467 -0.0029022 0.011 594.247 -1.61293 
5 1 0.0298515 0.0496354 0.113927 0 0 0 -4.05639e-06 4.03637e-06 8.81686e-06 -1.36395e-07 -3.1352e-07 3.93759e-07 -0.000982805 0.00188005 -0.000286097 0.011 594.457 -1.53863 
148 1 0.0510923 0.0484011 0.111517 0 0 0 -7.1713e-06 -5.71031e-06 6.67133e-06 -3.4261e-07 -3.27064e-07 1.08576e-06 -0.000684733 -0.00179627 -0.000188247 0.011 594.765 -1.50061 
122 1 0.0693602 0.041246 0.102362 0 0 0 7.74492e-06 4.93473e-05 -7.49061e-06 -1.66182e-06 2.05456e-06 -1.61187e-06 0.010715 -9.26696e-05 0.00429668 0.011 593.258 -1.82398 
254 1 0.0886877 0.0446661 0.111889 0 0 0 -1.51929e-05 -4.12111e-06 -2.38275e-05 -9.17496e-08 -1.11243e-07 6.98571e-07 -0.0011188 0.00234803 -0.00284942 0.011 594.688 -1.53329 
251 1 0.0105112 0.0513842 0.105019 0 0 0 -4.82811e-06 -6.15928e-07 1.04098e-05 -6.82423e-09 -6.70223e-08 2.10708e-07 -0.000831751 -0.000987307 -6.84067e-05 0.011 594.78 -1.4658 
23 1 0.0687605 0.0608116 0.111977 0 0 0 -7.6211e-06 -1.66338e-06 6.59644e-06 -3.52422e-07 1.38695e-07 9.83644e-07 -0.00360586 -0.000172652 -0.000701272 0.011 594.421 -1.55618 
84 1 0.0135714 0.0732807 0.100602 0 0 0 -3.57033e-06 4.45162e-06 2.09173e-06 1.11728e-07 -3.82285e-07 -1.53641e-07 0.000322055 0.000362851 8.51968e-05 0.011 594.667 -1.51645 
219 1 0.0316306 0.0712546 0.11252 0 0 0 -2.57302e-06 1.63449e-06 2.47431e-06 -2.2885e-07 -1.93763e-07 8.10556e-08 0.000431934 -0.00026672 0.000242196 0.011 594.066 -1.62946 
59 1 0.0506532 0.068315 0.102673 0 0 0 -1.40756e-06 -4.25592e-06 -4.1271e-06 -9.64703e-08 -3.82645e-07 4.0387e-08 -0.000125667 0.000951951 -0.000724222 0.011 594.442 -1.55235 
158 1 0.0876353 0.0711536 0.112626 0 0 0 2.70063e-06 -6.99773e-06 -3.0139e-06 -6.37739e-08 4.01274e-07 8.20031e-07 -0.00100936 -0.000765388 -0.000334197 0.011 594.41 -1.56139 
176 1 0.0106113 0.0894532 0.114739 0 0 0 -8.87875e-07 5.87925e-07 1.69504e-06 -6.62113e-08 -3.895e-08 -2.24421e-07 -0.000134572 -9.8271e-05 -2.1275e-05 0.011 593.982 -1.6707 
128 1 0.0375956 0.0892798 0.102108 0 0 0 -6.1968e-06 -5.56292e-07 4.51631e-06 -5.10979e-07 -1.90571e-07 4.21091e-07 -0.000496988 0.000406176 -0.000663784 0.011 594.753 -1.47885 
37 1 0.0633728 0.0898714 0.105254 0 0 0 -6.56459e-06 2.85484e-06 9.55595e-06 -7.9138e-07 3.40419e-07 1.094e-06 -0.00110401 0.00075756 -0.000716067 0.011 594.415 -1.56392 
211 1 0.0861894 0.0895475 0.101444 0 0 0 5.93544e-06 1.43201e-06 -3.37782e-06 7.69405e-07 5.01071e-07 3.26206e-07 0.000640533 -0.000411427 0.000601388 0.011 594.432 -1.55633 
250 1 0.0102776 0.0141805 0.133064 0 0 0 -1.61882e-06 -1.45794e-06 3.0203e-06 4.44876e-08 2.28693e-07 -3.41576e-08 -0.000178314 -0.000341898 -0.000297503 0.011 594.408 -1.56126 
87 1 0.0293525 0.0106175 0.123274 0 0 0 -4.09432e-06 -4.48538e-06 3.70393e-06 1.515e-07 6.89654e-08 1.55724e-07 -9.79064e-05 0.000747925 0.000203226 0.011 594.403 -1.5639 
48 1 0.0483697 0.0154426 0.131907 0 0 0 2.10487e-06 1.19153e-06 -4.7928e-06 -1.9942e-07 1.17765e-08 8.72409e-07 5.85807e-05 0.000462464 0.000584348 0.011 594.462 -1.53796 
215 1 0.067248 0.0102584 0.123149 0 0 0 1.18086e-05 -6.88678e-06 1.78799e-05 -3.70583e-07 -4.74563e-07 1.35372e-06 -0.00138092 -0.00342309 -0.000978239 0.011 594.79 -1.4877 
242 1 0.0894648 0.0110417 0.129598 0 0 0 -2.87766e-05 -1.91038e-06 -3.49054e-05 1.27058e-06 5.29113e-07 1.67585e-06 0.000279174 0.00129886 8.60838e-05 0.011 594.927 -1.42667 
175 1 0.0589635 0.0291887 0.117542 0 0 0 3.03866e-06 -4.08497e-06 8.34699e-06 6.07626e-08 -2.27041e-07 1.22924e-06 0.00106587 -0.000200384 0.000456787 0.011 594.868 -1.45429 
72 1 0.0799088 0.0263665 0.116907 0 0 0 3.38049e-06 1.12684e-05 -2.17601e-05 -2.91599e-07 -6.40269e-07 1.40142e-06 0.00322026 0.00378331 0.00251115 0.011 594.901 -1.44393 
82 1 0.0108139 0.0371678 0.130155 0 0 0 -3.27087e-07 -1.40356e-06 -1.1817e-07 1.38742e-07 2.44991e-07 3.39254e-08 -7.75764e-05 -0.00014083 -0.000149036 0.011 594.373 -1.57777 
227 1 0.0401905 0.0345456 0.125451 0 0 0 7.90404e-07 1.25267e-06 7.43056e-06 8.5429e-08 2.33837e-08 4.53025e-07 0.000691344 -0.000204986 -0.000921032 0.011 594.433 -1.55131 
67 1 0.0717982 0.0446653 0.1256 0 0 0 8.80422e-08 2.29715e-06 1.34607e-05 -4.11661e-08 5.91829e-08 1.07725e-06 0.00129813 0.00113493 0.000422842 0.011 594.897 -1.43999 
24 1 0.0895709 0.0350321 0.133289 0 0 0 5.86254e-06 -1.95423e-06 -7.29566e-06 4.85779e-08 8.73045e-08 4.25818e-07 0.000431691 -0.00083 0.000444161 0.011 594.937 -1.41977 
151 1 0.0511763 0.0661469 0.124505 0 0 0 2.731e-06 -3.53661e-06 -2.63751e-06 -4.38457e-07 5.0618e-07 9.47935e-08 6.45291e-06 -0.000240113 -0.00231238 0.011 594.408 -1.56199 
205 1 0.0897514 0.0571848 0.128849 0 0 0 2.20537e-06 -7.24842e-06 -1.03001e-05 -1.03026e-07 8.3985e-08 7.0434e-07 0.00147929 -0.000763519 0.00092992 0.011 594.46 -1.5394 
66 1 0.0105903 0.0685173 0.120376 0 0 0 -3.50143e-07 6.99229e-08 1.10932e-06 -1.30292e-07 -1.26036e-07 -1.47669e-07 0.00013179 -8.03926e-05 2.42112e-05 0.011 594.019 -1.65365 
154 1 0.0700193 0.0798265 0.122023 0 0 0 2.09807e-06 -4.3251e-07 -1.4173e-06 -2.74698e-07 3.60901e-07 6.93077e-07 0.0015465 0.0007261 -9.32289e-05 0.011 594.412 -1.55963 
113 1 0.0279087 0.0892587 0.127593 0 0 0 -2.36459e-06 -4.31947e-07 1.07432e-06 -2.24897e-07 -4.42639e-08 -1.99602e-07 1.50956e-05 6.81509e-05 -0.000165201 0.011 593.944 -1.68916 
57 1 0.0486661 0.0879568 0.121137 0 0 0 -3.16653e-06 7.06624e-06 7.81463e-06 -4.62727e-07 7.47509e-07 6.39924e-07 0.000707478 -0.000640548 0.000643936 0.011 593.981 -1.67112 
226 1 0.0894244 0.0898456 0.122582 0 0 0 1.45834e-06 -2.17034e-06 -3.21714e-06 -1.82851e-07 2.41189e-07 3.06332e-07 0.000250333 1.89899e-05 0.000140715 0.011 594.41 -1.56102 
115 1 0.0349102 0.00967732 0.147786 0 0 0 2.09319e-06 -6.878e-07 -5.38095e-07 -4.03598e-07 9.83404e-08 3.48075e-07 -1.33565e-05 -0.000143623 -0.000187858 0.011 594.42 -1.553 
137 1 0.0807297 0.010188 0.14847 0 0 0 -4.30688e-06 -1.23509e-06 -9.29803e-06 7.31383e-08 1.22655e-07 4.6066e-07 -0.000421169 0.00108993 0.000295931 0.011 594.913 -1.43068 
134 1 0.0263015 0.026273 0.139304 0 0 0 -3.57145e-07 -6.5906e-07 1.8695e-06 -1.33893e-07 2.22564e-07 2.39263e-07 0.000115795 0.000174449 0.000262403 0.011 594.41 -1.56016 
129 1 0.0507488 0.0308356 0.146554 0 0 0 4.58679e-07 4.74775e-07 1.63665e-06 -2.20497e-07 3.88068e-07 6.21582e-07 0.000478639 -0.000272783 0.000117683 0.011 594.853 -1.45598 
75 1 0.0700299 0.0264402 0.137482 0 0 0 1.2506e-06 4.3993e-07 1.13889e-06 -1.35583e-08 1.60176e-07 1.10374e-06 -0.000602964 0.000317348 -0.000502759 0.011 594.936 -1.41943 
198 1 0.0289119 0.0475841 0.137643 0 0 0 5.91431e-07 3.85202e-07 4.12638e-06 1.55556e-07 2.2106e-07 4.38506e-07 2.12883e-05 -0.000503287 4.83488e-05 0.011 594.34 -1.59047 
244 1 0.0620007 0.0485661 0.144287 0 0 0 -1.61688e-06 -9.6869e-07 6.00205e-06 -7.5732e-08 3.88773e-07 8.01318e-07 -0.000988693 -0.00094828 0.000342402 0.011 594.862 -1.45447 
135 1 0.0847494 0.0491534 0.148404 0 0 0 3.47168e-06 -3.45227e-06 -8.07425e-06 7.11817e-08 1.12693e-07 4.94454e-07 -0.000658358 0.00068908 -0.00032607 0.011 594.878 -1.4465 
71 1 0.00991299 0.0567028 0.137454 0 0 0 -1.54322e-07 -5.28005e-07 -5.2537e-08 2.1084e-08 2.0356e-07 -3.26572e-08 1.52001e-05 -1.19714e-05 4.23646e-05 0.011 594.021 -1.65092 
10 1 0.0453634 0.0626074 0.145413 0 0 0 -1.15997e-06 -1.29024e-06 -2.57358e-06 8.5954e-09 4.97825e-07 5.1895e-08 0.000312829 0.000300273 -0.000310765 0.011 594.024 -1.64929 
17 1 0.0720907 0.0654351 0.136836 0 0 0 2.01956e-06 -9.30441e-06 -5.7402e-06 1.6368e-07 1.17768e-07 4.58127e-07 -0.000434702 0.00034543 -0.000864396 0.011 594.444 -1.54583 
29 1 0.010547 0.0805237 0.137846 0 0 0 -1.12106e-06 -4.66735e-07 1.00543e-06 1.04315e-08 5.40374e-09 -2.00014e-07 -6.94853e-05 -4.94938e-05 -5.55771e-05 0.011 593.95 -1.68444 
132 1 0.0280526 0.0685314 0.133565 0 0 0 -1.85398e-06 -2.18769e-07 1.79527e-06 3.3774e-08 1.22993e-07 -1.81294e-08 -0.000176873 0.000127773 0.000157113 0.011 593.977 -1.67199 
170 1 0.0351472 0.0822774 0.148395 0 0 0 -1.72634e-06 1.41547e-06 1.23801e-07 -2.79619e-07 8.9408e-07 -6.00758e-07 -0.000246763 -0.000473395 -0.000570051 0.011 593.95 -1.68621 
173 1 0.0556914 0.0812714 0.140677 0 0 0 -2.59538e-06 -7.35738e-07 2.06671e-06 -7.06401e-08 1.69795e-07 4.73289e-08 0.000492281 0.000411458 0.000275308 0.011 594.367 -1.58349 
50 1 0.0799642 0.0848751 0.140414 0 0 0 2.67272e-06 -6.24115e-06 -3.86217e-06 7.97122e-08 1.24592e-07 2.97895e-07 -0.000200002 -0.000307893 0.000701121 0.011 594.407 -1.56287 
252 1 0.0110541 0.011381 0.154231 0 0 0 -0.000256986 -3.61055e-05 7.70064e-06 1.03849e-05 2.93571e-06 -4.69452e-08 -0.0121046 0.0326262 -0.421327 0.011 594.448 -1.54129 
101 1 0.0483185 0.0164207 0.161937 0 0 0 1.5024e-06 -1.40807e-06 -4.79378e-07 -3.92817e-07 1.09394e-07 3.80988e-07 -0.000120553 8.09139e-05 2.13446e-05 0.011 594.544 -1.50122 
171 1 0.0681592 0.0101683 0.164893 0 0 0 1.9047e-06 -9.50582e-07 -1.563e-06 -2.86719e-07 3.67577e-08 1.70572e-07 4.43107e-05 7.78212e-05 -5.99166e-06 0.011 594.826 -1.46629 
248 1 0.0894611 0.0287929 0.153384 0 0 0 -1.33006e-06 -1.64528e-06 -6.25749e-06 -1.42255e-08 1.53083e-07 4.17828e-07 0.000257664 -0.000235643 -0.000220689 0.011 594.906 -1.43319 
136 1 0.0107572 0.0375704 0.151741 0 0 0 -2.7713e-07 5.7877e-07 -2.65267e-07 3.74455e-08 -1.27475e-07 2.74088e-07 -0.000111282 8.35693e-05 5.27944e-05 0.011 594.439 -1.54621 
193 1 0.0326597 0.0374634 0.156005 0 0 0 -7.00685e-07 -1.126e-06 1.67545e-06 -3.94946e-07 1.53406e-07 4.23947e-07 4.3272e-05 0.000119601 -9.32597e-07 0.011 594.504 -1.51996 
179 1 0.0690769 0.0337246 0.158039 0 0 0 1.40049e-06 1.16443e-07 2.78931e-06 -1.66378e-07 3.61378e-07 8.12585e-07 0.000809123 0.000520037 0.00010654 0.011 594.908 -1.43184 
74 1 0.022652 0.0610595 0.153408 0 0 0 -1.13266e-06 -4.67495e-07 1.0703e-06 -1.58458e-07 2.87588e-07 1.26944e-07 4.37128e-05 -2.09895e-05 -4.21662e-05 0.011 594.066 -1.63104 
197 1 0.0658654 0.067348 0.156421 0 0 0 3.7813e-06 -2.91417e-06 -4.05893e-06 -1.71909e-07 1.20232e-07 2.12454e-07 8.48471e-05 -2.45003e-05 -0.000107157 0.011 594.371 -1.57849 
76 1 0.0871352 0.0694824 0.153393 0 0 0 4.99398e-06 -2.01751e-06 -5.18133e-06 -1.08324e-07 1.38608e-07 4.24941e-07 0.000524946 -0.000163841 0.000275071 0.011 594.409 -1.5621 
56 1 0.0141631 0.0895893 0.156584 0 0 0 -3.48607e-07 -5.20565e-09 3.31469e-07 -1.25918e-08 3.3463e-08 -1.03056e-07 -1.88955e-05 8.17007e-05 -4.29926e-05 0.011 594.026 -1.64933 
65 1 0.0463631 0.0894547 0.165194 0 0 0 -5.65173e-08 -3.94608e-07 -4.45847e-07 -4.39419e-07 1.19391e-07 -2.21123e-07 4.82664e-05 0.000384679 -3.8156e-05 0.011 593.98 -1.67062 
119 1 0.067224 0.0892552 0.157398 0 0 0 1.10619e-06 -2.79859e-06 -1.74999e-06 -9.49101e-08 1.21062e-07 -1.8353e-08 -7.11568e-05 0.00026264 -1.50868e-05 0.011 594.373 -1.57956 
236 1 0.0897944 0.0897935 0.158445 0 0 0 1.36558e-07 -8.33751e-07 -6.06348e-07 -3.07275e-08 6.70031e-08 1.10061e-07 -1.82736e-05 2.3356e-05 5.78444e-05 0.011 594.366 -1.58226 
107 1 0.0115072 0.0106731 0.175588 0 0 0 -1.64239e-05 -1.26912e-06 3.64075e-06 5.6929e-07 1.85516e-07 6.81486e-08 2.07289e-05 0.00317586 0.00126888 0.011 594.941 -1.42237 
81 1 0.0347428 0.0105196 0.177323 0 0 0 2.66945e-06 7.08671e-08 9.23672e-07 -2.51019e-07 7.24713e-08 2.14795e-07 5.71056e-05 0.000222846 -0.000186825 0.011 594.931 -1.42676 
143 1 0.0894265 0.012201 0.168141 0 0 0 8.71279e-07 -1.18557e-06 -5.31241e-06 -1.73611e-07 2.77158e-07 2.45547e-07 0.000609356 -0.000329891 0.000107919 0.011 594.536 -1.51536 
31 1 0.0404822 0.0312282 0.174774 0 0 0 1.9308e-06 -6.60031e-07 -2.06124e-07 -2.16242e-07 1.57216e-07 3.75447e-07 -2.78642e-05 0.000131696 0.000130399 0.011 594.864 -1.45486 
144 1 0.0608952 0.0261752 0.176072 0 0 0 2.44988e-06 -2.53947e-06 -4.65034e-08 -2.04239e-07 -4.18585e-08 3.38287e-07 5.13831e-06 -0.000216016 -0.000274638 0.011 594.574 -1.50115 
131 1 0.0181089 0.0343136 0.171719 0 0 0 -3.45188e-07 2.07673e-08 7.87509e-08 -4.95085e-08 6.5959e-10 4.79187e-07 0.00011524 -8.12007e-05 -0.000189084 0.011 594.904 -1.44001 
38 1 0.052055 0.0478706 0.182608 0 0 0 1.8252e-06 -1.14039e-08 -1.07517e-06 -3.30186e-07 1.8623e-07 1.75441e-07 1.18978e-06 9.8556e-05 3.52031e-05 0.011 594.511 -1.5307 
55 1 0.0892417 0.0412924 0.170438 0 0 0 -3.59245e-08 -1.85368e-06 -1.68133e-06 -2.16163e-08 1.23755e-07 1.62e-07 4.99961e-05 4.60908e-05 -4.66659e-05 0.011 594.485 -1.54162 
124 1 0.0106762 0.0599138 0.174834 0 0 0 3.58888e-07 -1.97816e-08 6.27285e-07 -1.62684e-07 1.10922e-07 1.86776e-07 3.13476e-05 -5.80979e-05 -1.15232e-06 0.011 594.704 -1.47984 
196 1 0.0303948 0.0519038 0.171181 0 0 0 6.97922e-07 -4.49593e-07 3.32833e-07 -3.18193e-07 2.45391e-07 2.28277e-07 -0.000111177 0.000125796 3.29297e-05 0.011 594.658 -1.50116 