ITEM: TIMESTEP
240000
ITEM: NUMBER OF ATOMS
1005
ITEM: BOX BOUNDS mm mm mm
0 0.1
0 0.1
0 1.1
ITEM: ATOMS id type x y z ix iy iz vx vy vz fx fy fz omegax omegay omegaz radius f_Temp[0] f_heatFlux[0] 
152 1 0.0254471 0.0104912 0.0102219 0 0 0 1.94241e-06 1.83126e-06 3.48074e-06 -1.17108e-07 -6.40521e-08 -2.31458e-08 -0.000154016 -0.000277789 0.000224809 0.011 590.714 -2.59648 
97 1 0.0100959 0.0228962 0.0166303 0 0 0 -3.70145e-07 9.23661e-07 -6.7901e-07 -5.83035e-08 -6.38746e-08 -5.98041e-08 -0.000178615 5.07765e-05 6.78247e-05 0.011 590.758 -2.5644 
231 1 0.0360319 0.0295066 0.0103013 0 0 0 -6.65341e-06 3.55523e-06 -3.06153e-06 -1.03766e-06 -4.91368e-07 1.57445e-07 -0.000433136 -0.000482579 0.00043819 0.011 590.725 -2.58803 
89 1 0.0620413 0.0171547 0.0104261 0 0 0 1.31546e-05 -2.49375e-06 -1.09528e-05 2.66521e-07 -8.77337e-07 -3.7513e-07 0.000304165 0.000732167 0.00105331 0.011 589.425 -2.9304 
216 1 0.0812371 0.0269589 0.00999631 0 0 0 1.17681e-05 5.50439e-06 -2.89991e-05 8.25057e-07 -2.5835e-06 2.08319e-07 -0.00142145 0.00196125 -0.000406641 0.011 589.36 -2.95849 
155 1 0.0150043 0.0423283 0.0103378 0 0 0 8.87722e-07 -1.119e-07 -1.26247e-06 6.04284e-08 -8.1113e-08 -4.21937e-08 2.68627e-05 7.34427e-05 -0.000247988 0.011 590.764 -2.56894 
79 1 0.0644515 0.0460879 0.0105436 0 0 0 2.15818e-05 5.72169e-06 7.21059e-06 1.21007e-06 -7.50664e-07 -2.95522e-07 0.000193535 0.00057153 -0.00388104 0.011 589.662 -2.80608 
180 1 0.0339228 0.0582287 0.0104702 0 0 0 2.42955e-06 1.18763e-06 -8.8143e-07 3.50371e-07 9.75631e-09 -3.97332e-08 -7.85946e-05 0.000240588 6.51804e-05 0.011 591.273 -2.43146 
33 1 0.0814164 0.0599232 0.0102621 0 0 0 5.0703e-05 5.43622e-05 -2.9285e-05 1.54147e-06 2.52804e-06 -1.37547e-06 -0.00424409 0.00545419 0.00793334 0.011 591.917 -2.27559 
2 1 0.0105505 0.0718177 0.00973628 0 0 0 8.97199e-07 -2.36741e-07 -5.33359e-07 9.20047e-08 -4.98364e-08 -3.51335e-08 6.39235e-05 8.58567e-05 2.83041e-05 0.011 591.279 -2.42764 
30 1 0.0423261 0.0807625 0.01 0 0 0 1.71373e-06 4.00527e-07 -2.13008e-07 1.12187e-07 5.8121e-08 -2.52888e-08 -4.50759e-05 0.000166739 -0.000286413 0.011 591.318 -2.40982 
253 1 0.0601196 0.0675847 0.0106244 0 0 0 1.25158e-05 4.10111e-06 -3.46831e-06 2.41215e-07 -6.00244e-07 -2.67715e-07 -0.000276887 0.000622061 0.00216007 0.011 591.932 -2.26828 
25 1 0.0890674 0.080157 0.00996804 0 0 0 -6.47023e-06 3.10132e-05 -1.95235e-05 -5.02461e-07 1.46857e-06 -9.14763e-07 -0.000125065 -0.00155741 -0.00339448 0.011 592.008 -2.22637 
233 1 0.0222915 0.0895166 0.0118684 0 0 0 7.10805e-07 2.98731e-07 6.65532e-08 3.46385e-08 6.47399e-10 1.21098e-08 -3.78432e-06 -9.81102e-05 8.46722e-05 0.011 591.263 -2.43948 
192 1 0.0689573 0.0890011 0.0109513 0 0 0 3.16013e-06 1.68781e-05 -5.24088e-06 2.40729e-07 7.79963e-07 -3.46109e-07 -0.00124493 0.000827159 0.0033803 0.011 591.995 -2.23617 
166 1 0.0440597 0.0107331 0.0202803 0 0 0 1.75442e-05 2.61496e-06 1.48049e-06 2.38437e-07 -8.48067e-09 6.25649e-08 -0.000696222 0.00178779 -0.00119066 0.011 590.569 -2.66454 
203 1 0.0627294 0.0103233 0.0310018 0 0 0 2.32278e-05 -4.76056e-06 -1.03153e-05 6.88115e-07 -7.96126e-07 -1.07708e-06 -0.00113477 -0.000998692 -0.00128039 0.011 589.462 -2.90272 
234 1 0.0888455 0.0102822 0.0207321 0 0 0 1.73341e-05 1.28443e-05 -1.72461e-05 6.51848e-07 -2.2159e-07 -9.61175e-07 -0.00233899 0.00255216 -0.00195136 0.011 589.351 -2.96605 
22 1 0.0674542 0.0308915 0.0259835 0 0 0 -2.1711e-06 -7.08564e-06 -1.41756e-05 -4.06769e-07 -5.27783e-07 -1.27337e-06 0.00188879 -0.000908631 0.00142987 0.011 589.481 -2.88971 
104 1 0.0246177 0.0349092 0.0292664 0 0 0 3.02469e-06 4.93553e-06 -1.83713e-06 6.66586e-07 -2.24047e-07 3.92877e-07 0.000241661 -2.94137e-05 -3.58367e-05 0.011 590.785 -2.54849 
35 1 0.0463014 0.0343862 0.0280722 0 0 0 -1.80387e-06 -6.29336e-06 -1.08727e-05 2.43929e-07 -8.63817e-07 -7.94081e-07 0.000464914 0.000966101 -0.0017724 0.011 590.802 -2.54492 
147 1 0.0896082 0.0357664 0.027074 0 0 0 -1.09464e-05 5.5406e-05 -8.27877e-05 -2.36906e-07 5.85594e-08 -1.4714e-06 -0.00561658 -0.00766747 -0.00315948 0.011 589.591 -2.8395 
8 1 0.0158777 0.0580097 0.0245506 0 0 0 3.17885e-06 -1.73502e-07 -1.80241e-06 2.96581e-07 -4.84266e-08 -7.68608e-08 7.6468e-06 -5.53945e-06 2.98354e-05 0.011 591.207 -2.45938 
63 1 0.0362747 0.053195 0.031191 0 0 0 9.28389e-06 5.82131e-07 -3.07426e-06 1.0379e-06 -2.25939e-07 -1.96245e-07 9.22307e-05 0.00033364 0.000221305 0.011 591.442 -2.35576 
99 1 0.0576219 0.0556969 0.0284724 0 0 0 1.87741e-05 2.37732e-05 -2.51328e-06 1.68937e-06 1.12312e-06 -9.94536e-08 -0.00183471 -0.00155759 0.00193111 0.011 591.952 -2.25964 
224 1 0.0872006 0.0564734 0.0302909 0 0 0 1.83344e-05 6.93484e-05 -7.25282e-05 4.7783e-07 2.26844e-06 -4.41109e-06 0.00730569 -0.0117534 -0.00637373 0.011 591.872 -2.28804 
126 1 0.0103591 0.0787915 0.0293282 0 0 0 3.91533e-07 -1.05556e-07 -7.8404e-07 6.45278e-08 -1.01373e-07 -4.55434e-08 -0.000136693 -5.59566e-05 1.44501e-05 0.011 591.568 -2.29179 
163 1 0.0308219 0.0731116 0.0256591 0 0 0 2.38733e-06 1.05313e-06 -2.66846e-08 3.23889e-07 -5.05514e-08 5.89808e-08 0.000140235 -1.68594e-05 0.000157746 0.011 591.327 -2.39385 
12 1 0.0745006 0.073442 0.0257555 0 0 0 2.70148e-05 4.30371e-05 -3.00066e-05 5.49993e-07 1.85643e-06 -1.27244e-06 0.00182572 0.00395585 0.0061919 0.011 592.004 -2.22888 
257 1 0.053155 0.0892637 0.0262309 0 0 0 2.24685e-06 1.82246e-06 -1.09308e-06 1.53675e-07 2.01107e-07 -2.53732e-07 -0.000124456 -0.000125058 0.00036169 0.011 591.956 -2.25206 
243 1 0.0892875 0.0891911 0.0286313 0 0 0 -1.50871e-06 2.0398e-05 -1.0915e-05 -1.08321e-07 9.4916e-07 -6.31027e-07 0.00168627 -0.000468194 -0.00178256 0.011 592.206 -2.13232 
223 1 0.0366972 0.0106923 0.0405211 0 0 0 4.0146e-05 1.38132e-05 2.28838e-05 1.30997e-06 6.14398e-07 6.942e-07 0.00194137 -0.000630111 -0.00352993 0.011 590.863 -2.51368 
70 1 0.0104574 0.0206615 0.0372902 0 0 0 3.46575e-06 2.85984e-06 -1.72141e-06 2.55678e-07 1.05686e-07 -6.63693e-09 7.66947e-05 0.000274433 0.000152543 0.011 591.23 -2.34442 
45 1 0.0533457 0.0234869 0.0450365 0 0 0 7.38137e-05 2.14032e-05 -3.05452e-05 4.06344e-06 -2.7226e-07 -8.12208e-07 -0.00399671 0.00838252 0.00230261 0.011 590.06 -2.62821 
108 1 0.0809224 0.0194394 0.0384422 0 0 0 3.53405e-05 0.000101403 -3.77347e-05 -1.66079e-06 -3.28347e-06 4.46436e-06 -0.00868354 0.00397837 0.00958579 0.011 589.649 -2.82236 
96 1 0.0118124 0.0470096 0.0420235 0 0 0 2.15149e-06 1.89636e-06 -2.70172e-06 3.2627e-07 1.73938e-07 -9.23704e-08 -0.000181698 -0.000116223 5.22263e-05 0.011 591.086 -2.40716 
9 1 0.0408221 0.0409413 0.0478627 0 0 0 2.46888e-05 -2.41738e-06 -4.18941e-06 2.12712e-06 -2.77695e-07 -6.63256e-07 -7.85181e-05 0.000743111 0.00135839 0.011 593.717 -1.87073 
80 1 0.0755038 0.0427512 0.0417238 0 0 0 4.17298e-05 0.000116397 -0.000112841 1.96191e-06 2.96816e-06 -8.09312e-06 -0.00979163 0.0167996 0.0125517 0.011 590.212 -2.56786 
146 1 0.023489 0.0652288 0.0441921 0 0 0 1.68445e-06 -5.84379e-07 -3.09137e-06 4.77655e-07 -2.14276e-07 -1.72536e-07 0.000162389 -0.000167398 -7.95863e-05 0.011 591.726 -2.21284 
182 1 0.0584024 0.0528226 0.0495926 0 0 0 1.13918e-05 3.20994e-05 -1.38811e-05 1.48327e-06 1.46333e-06 -1.47553e-07 0.00178716 7.6297e-05 0.00285937 0.011 593.895 -1.81744 
240 1 0.0106826 0.0818066 0.0498456 0 0 0 -1.43573e-06 8.77134e-07 -1.3562e-06 -8.88662e-08 -9.90121e-08 -5.36207e-08 3.231e-05 2.61086e-05 0.000212726 0.011 594.228 -1.72654 
204 1 0.0466074 0.0738914 0.0406821 0 0 0 1.23962e-06 1.70541e-05 -1.44405e-06 3.51835e-07 1.28784e-06 -2.00427e-07 0.0007529 8.73975e-05 0.00276802 0.011 591.456 -2.3372 
78 1 0.0692244 0.0708973 0.0483652 0 0 0 -4.9051e-06 2.87961e-05 4.01664e-07 -1.55452e-07 1.78978e-06 1.00274e-06 -0.00132313 -0.000394421 -0.00161523 0.011 594.219 -1.66897 
212 1 0.0899725 0.0687316 0.0468705 0 0 0 -1.06833e-05 1.4669e-06 -1.73842e-06 -2.52771e-07 -3.60522e-07 -2.03056e-07 -3.71806e-05 0.000733331 -0.000824331 0.011 594.167 -1.69952 
32 1 0.0268325 0.0897765 0.037709 0 0 0 -1.71664e-06 1.20541e-06 3.66139e-07 -2.09317e-07 4.09453e-08 6.90176e-08 -0.000161206 -0.000453768 -2.11306e-05 0.011 591.67 -2.23928 
34 1 0.0702597 0.0898164 0.0390868 0 0 0 2.83122e-06 1.0421e-05 -5.32853e-06 2.7043e-08 4.11916e-07 -6.21669e-07 0.000463077 0.000468938 0.000537288 0.011 592.291 -2.09358 
217 1 0.0892415 0.0898425 0.0494496 0 0 0 -6.44896e-07 1.96707e-06 -4.20859e-06 -7.82603e-08 -1.0922e-07 -3.76791e-07 0.000164248 -4.89912e-05 -0.000238918 0.011 594.108 -1.71494 
258 1 0.0129917 0.0100016 0.0550992 0 0 0 -4.8063e-07 2.49815e-06 -2.20596e-06 2.02674e-07 1.41485e-07 -2.27345e-08 -0.000167502 -0.000746643 0.000130512 0.011 593.986 -1.7452 
164 1 0.0340187 0.01034 0.0619119 0 0 0 -1.53358e-05 -5.41865e-06 1.25942e-05 1.55065e-07 -1.3256e-07 3.24943e-07 0.000886422 -0.00447275 0.00141412 0.011 594.063 -1.71478 
15 1 0.0686457 0.0109532 0.0545426 0 0 0 4.85376e-05 3.70868e-05 -1.00276e-05 1.60908e-06 -2.71863e-06 -1.88682e-06 0.00152051 -0.00771601 -0.00205702 0.011 592.843 -2.03588 
64 1 0.0256326 0.0267075 0.0511046 0 0 0 1.14485e-05 -2.75167e-06 1.28785e-07 1.17972e-06 -2.63505e-07 -2.35992e-07 -0.00018494 -0.000481753 -0.00136639 0.011 594.018 -1.73913 
191 1 0.0895746 0.0318831 0.0533658 0 0 0 -2.26198e-05 0.000166689 -6.85043e-05 -1.85914e-06 1.23546e-05 7.51142e-09 -0.00664178 -0.0300341 -0.0317818 0.011 592.537 -2.17074 
199 1 0.0102992 0.0380888 0.0609945 0 0 0 1.59735e-06 4.3701e-06 -2.98056e-06 4.35416e-07 1.35736e-07 -1.13782e-07 -1.75802e-05 -0.000129181 0.000284856 0.011 594.005 -1.73464 
123 1 0.0652343 0.0343329 0.058575 0 0 0 4.01303e-05 8.33628e-05 -3.6002e-05 3.44252e-06 5.76145e-06 -2.66074e-06 0.000830413 -0.0126498 0.00418463 0.011 592.641 -2.11152 
43 1 0.010601 0.0604899 0.0611533 0 0 0 1.12427e-06 2.37858e-06 -1.13306e-06 1.89783e-07 -7.61259e-08 -1.32183e-08 -0.000903595 0.000113934 0.000284261 0.011 594.656 -1.52957 
161 1 0.0394498 0.0598853 0.0574859 0 0 0 4.66332e-06 7.63231e-06 -8.89409e-06 6.30108e-07 -1.91081e-07 -5.14797e-07 -0.00103549 0.000659288 0.000584109 0.011 594.454 -1.62706 
92 1 0.0894384 0.0558524 0.0648072 0 0 0 -2.00411e-05 6.41594e-05 3.13913e-05 4.28306e-07 1.5253e-05 3.93046e-06 -0.0119017 0.00217631 -0.00906541 0.011 594.341 -1.60355 
54 1 0.0259864 0.0756813 0.0637091 0 0 0 -4.69326e-06 4.13578e-06 -1.42969e-06 -2.30149e-07 4.26659e-08 2.02421e-09 0.000560843 -0.000431885 0.000415008 0.011 594.76 -1.4881 
185 1 0.0534572 0.0751312 0.0613724 0 0 0 -7.08034e-06 1.74993e-05 -9.56115e-07 -1.58724e-06 1.0498e-06 5.59784e-07 0.00129374 -0.000308397 0.00277307 0.011 594.34 -1.61252 
4 1 0.0399266 0.0897068 0.0543665 0 0 0 -1.02338e-05 2.34252e-06 3.89896e-06 -1.15072e-06 -1.06117e-07 2.9812e-07 -0.000292741 -0.000138677 -0.00081701 0.011 594.469 -1.61804 
103 1 0.0879748 0.016411 0.0675569 0 0 0 -0.0144643 0.0010549 -0.000692282 -0.000550368 0.000500292 0.00026772 0.352533 2.599 -4.11393 0.011 592.972 -1.97303 
52 1 0.014078 0.0209839 0.0728806 0 0 0 -1.81414e-05 3.26191e-06 -1.81982e-06 -4.17281e-08 9.83034e-08 -9.11521e-08 8.4922e-05 -0.00131291 -0.000327644 0.011 594.253 -1.62071 
28 1 0.0400642 0.0320451 0.0674213 0 0 0 -1.30904e-05 -1.38865e-05 1.03403e-06 7.73231e-07 1.51523e-07 -3.92145e-07 0.000591982 -0.00324502 -0.00194259 0.011 594.194 -1.64759 
232 1 0.0333584 0.017548 0.081945 0 0 0 -5.41594e-05 -4.73413e-06 9.39707e-06 -7.60053e-07 -8.42153e-08 2.63501e-07 -0.00108415 0.000539637 -0.00170972 0.011 594.208 -1.63598 
153 1 0.0266105 0.0487987 0.0697432 0 0 0 4.20968e-06 3.72817e-06 -1.97208e-06 5.37464e-07 5.61315e-08 -9.80025e-08 0.000842397 0.000166839 -0.000320296 0.011 594.344 -1.57975 
140 1 0.0580434 0.0362357 0.0784954 0 0 0 -2.15041e-05 5.47496e-05 -3.37258e-05 1.89063e-06 1.47984e-06 -3.70188e-06 -0.00304839 0.005843 0.00818496 0.011 593.244 -1.84134 
189 1 0.0810381 0.0375972 0.072333 0 0 0 -4.96555e-05 3.07101e-05 -6.95786e-06 -1.48532e-06 1.46605e-05 -3.29946e-07 0.0234102 0.0112566 0.00683525 0.011 593.122 -1.90105 
200 1 0.0104472 0.0513288 0.0831916 0 0 0 -1.23075e-06 -5.98612e-07 1.67564e-06 1.76609e-07 -4.31958e-08 1.15276e-07 0.000821762 -0.000230101 -0.000643037 0.011 594.738 -1.48651 
157 1 0.0560391 0.0559522 0.070741 0 0 0 -2.59846e-05 7.01238e-07 -1.31778e-05 -6.87554e-07 3.404e-07 9.38889e-07 0.00174311 -0.00252762 -0.00567656 0.011 594.357 -1.60186 
14 1 0.0104601 0.0722664 0.080194 0 0 0 -6.11865e-07 2.05127e-06 3.68099e-06 -8.26088e-09 3.89527e-08 1.25252e-07 -0.000492947 -0.000453954 0.000429902 0.011 594.796 -1.46184 
69 1 0.0401965 0.0684186 0.0785521 0 0 0 -1.96074e-06 1.12541e-05 -1.70142e-06 -5.05926e-07 3.92256e-08 -1.42308e-08 0.000676589 0.00104714 0.00149351 0.011 594.785 -1.46579 
85 1 0.0738105 0.0698992 0.0696541 0 0 0 2.24907e-05 6.95897e-05 -1.0253e-05 7.37162e-06 1.34392e-05 -1.07903e-06 -0.000118286 0.00353326 0.00842267 0.011 594.424 -1.56277 
209 1 0.0105735 0.0898516 0.0690394 0 0 0 -1.98994e-06 9.69258e-08 -2.75713e-07 -1.45638e-07 -7.58564e-08 3.12632e-08 2.60208e-06 2.9782e-05 -0.000120197 0.011 594.77 -1.48092 
127 1 0.0374781 0.089661 0.0753379 0 0 0 -8.02182e-06 3.78485e-06 3.88946e-06 -6.52416e-07 1.37076e-07 4.76137e-07 -0.000146988 5.15716e-05 -0.00044804 0.011 594.761 -1.4797 
183 1 0.0653239 0.0896841 0.0712186 0 0 0 -2.14719e-05 1.56668e-05 4.31165e-06 -3.58195e-06 2.07203e-06 6.31019e-07 -0.000231843 0.00101893 -0.00175811 0.011 594.432 -1.55766 
194 1 0.0893172 0.0897645 0.070022 0 0 0 1.8279e-06 -1.11664e-06 -2.69442e-06 1.33121e-07 -1.05187e-07 -7.45014e-09 0.000217722 0.000152166 0.000228553 0.011 594.409 -1.57386 
187 1 0.010554 0.010344 0.0908399 0 0 0 -1.05328e-05 -5.11792e-07 -4.18211e-07 -1.09857e-07 1.1159e-08 -8.70143e-09 0.000161024 0.000354984 0.000525393 0.011 594.295 -1.59193 
229 1 0.086837 0.00985504 0.087541 0 0 0 -0.00041784 -5.2393e-06 -0.000214734 -1.12461e-05 3.17757e-06 -6.36976e-07 -0.0196667 0.0835054 0.0395375 0.011 593.123 -1.89255 
58 1 0.0107818 0.0316264 0.0910417 0 0 0 -1.55066e-05 4.46892e-07 -4.74538e-06 -1.84323e-07 7.31395e-08 -1.06646e-07 -0.000243832 0.00114674 2.71485e-05 0.011 594.329 -1.57695 
53 1 0.0528308 0.0187595 0.0909081 0 0 0 -0.000104804 0.000127905 9.56964e-06 -1.88536e-06 4.83007e-06 4.81654e-08 0.00652494 5.15533e-05 0.0185974 0.011 593.201 -1.85078 
167 1 0.0729651 0.0255407 0.0880387 0 0 0 -0.000154656 -8.10899e-07 2.78844e-05 4.04797e-07 1.90142e-06 -3.87111e-06 -0.0122792 -0.00176849 -0.0313638 0.011 593.068 -1.90513 
49 1 0.0307644 0.0381405 0.0876041 0 0 0 -2.97262e-05 -3.71917e-07 3.83522e-06 -2.39192e-07 -4.02118e-07 2.84545e-07 -0.000468927 -0.00341105 -0.000778267 0.011 594.311 -1.58635 
39 1 0.089752 0.0377431 0.0918712 0 0 0 8.77583e-06 -8.28918e-05 -2.10499e-05 8.24562e-07 -1.38291e-06 -1.29104e-06 -0.00490036 -0.00323392 0.00839895 0.011 593.243 -1.83451 
102 1 0.0284139 0.0591568 0.0943144 0 0 0 -1.03981e-05 1.95187e-06 7.1926e-06 -2.92548e-07 -6.7045e-07 3.27768e-07 -0.00013849 -0.00150642 -0.00100093 0.011 594.784 -1.46749 
47 1 0.0478044 0.0509485 0.0901401 0 0 0 -2.73528e-05 4.00459e-06 -4.34628e-06 -5.86916e-08 -1.27352e-06 1.03351e-06 0.000648112 0.00371108 0.000922117 0.011 594.639 -1.53426 
255 1 0.0724708 0.0533011 0.0843182 0 0 0 -3.34912e-05 -2.13253e-05 4.64353e-05 -4.1334e-06 2.86826e-06 7.09416e-06 -0.0139518 -0.000466264 -0.00370902 0.011 594.319 -1.61307 
260 1 0.089778 0.0584198 0.095856 0 0 0 -1.77157e-05 -1.26155e-05 -1.19197e-05 -5.36156e-07 1.23624e-07 7.9791e-07 0.00219182 0.0011846 -0.00203946 0.011 594.356 -1.59352 
93 1 0.0702564 0.0726112 0.0941205 0 0 0 -3.12448e-06 8.54601e-06 -1.17613e-05 1.06705e-07 1.76992e-06 4.13698e-07 0.0039293 -0.000334053 1.56982e-05 0.011 594.432 -1.55672 
133 1 0.0892945 0.0761731 0.0853082 0 0 0 8.9438e-07 2.86159e-06 -2.6051e-07 1.7664e-07 9.36418e-07 9.53503e-07 -0.00069175 4.68971e-05 -0.000917937 0.011 594.428 -1.56017 
256 1 0.0207012 0.0893778 0.0883456 0 0 0 -4.98487e-06 4.21869e-06 2.28767e-06 -4.10676e-07 1.60509e-07 2.37776e-07 -9.57334e-05 -0.000163882 -0.000129059 0.011 594.8 -1.45865 
6 1 0.053153 0.0837565 0.0878196 0 0 0 -8.60614e-06 7.4188e-06 5.99745e-06 -1.00553e-06 7.58833e-07 1.17127e-06 0.00119925 -0.000342229 0.00141944 0.011 594.472 -1.53807 
246 1 0.0105984 0.0104835 0.112179 0 0 0 -4.60773e-06 -3.37465e-06 2.57778e-06 -6.6256e-08 -8.26468e-08 7.26082e-08 -0.000253796 7.8343e-05 -0.000395487 0.011 594.39 -1.56986 
149 1 0.0295209 0.0106071 0.101695 0 0 0 -2.65213e-05 1.88707e-06 1.18592e-05 -4.38416e-07 -7.32234e-09 2.98029e-07 0.00130353 0.000155789 0.00238663 0.011 594.297 -1.59246 
156 1 0.0493615 0.0107067 0.110755 0 0 0 -1.05269e-05 5.59139e-06 -3.89122e-06 1.54868e-06 1.86028e-06 -1.94948e-06 0.00090887 0.00225451 0.000916272 0.011 594.367 -1.58131 
91 1 0.0702378 0.0100931 0.101844 0 0 0 -7.43883e-05 9.64842e-06 7.18161e-05 -2.40184e-06 1.24789e-06 5.32521e-06 0.00485473 0.0156746 0.0107131 0.011 593.26 -1.82574 
241 1 0.0900976 0.0104267 0.108621 0 0 0 4.90932e-05 5.06019e-05 -8.0525e-05 8.95419e-07 3.86962e-08 -6.97708e-07 0.00516067 -0.0124635 -0.003843 0.011 594.679 -1.53912 
139 1 0.0164453 0.0310481 0.111083 0 0 0 -1.14933e-06 -1.43516e-06 -3.55964e-06 6.75165e-08 -3.22598e-08 -9.0302e-09 0.000202674 0.00025041 6.33301e-05 0.011 594.393 -1.56878 
249 1 0.0399668 0.0294894 0.104757 0 0 0 -5.97059e-05 1.26848e-06 1.8571e-05 -1.49363e-06 -2.35872e-07 8.65283e-07 -0.00176837 0.00449113 -0.00304054 0.011 594.251 -1.61197 
5 1 0.0298517 0.0496354 0.113926 0 0 0 -3.54363e-06 4.55507e-06 7.88106e-06 -3.55538e-07 8.68794e-08 5.50838e-07 -0.000972016 0.00195694 -0.000443166 0.011 594.454 -1.53914 
148 1 0.0510925 0.0484012 0.111517 0 0 0 -5.93163e-06 -4.71647e-06 2.08972e-06 -3.41011e-06 -3.30231e-06 5.63772e-06 -0.0002865 -0.00159559 8.6097e-06 0.011 594.765 -1.50071 
122 1 0.0693599 0.0412448 0.102362 0 0 0 9.31558e-06 4.60232e-05 -4.09076e-06 1.16046e-05 -7.16268e-05 -5.68392e-05 0.00874346 -0.00058325 0.0038121 0.011 593.258 -1.82373 
254 1 0.0886881 0.0446661 0.11189 0 0 0 -1.4495e-05 -3.57812e-06 -2.4005e-05 -1.11347e-06 -1.71999e-06 -3.32519e-07 -0.00109957 0.00249401 -0.00276805 0.011 594.688 -1.53331 
251 1 0.0105113 0.0513843 0.105019 0 0 0 -4.71734e-06 2.02532e-07 1.02419e-05 -2.03356e-07 -3.97025e-08 3.74705e-07 -0.000955934 -0.000974943 7.44109e-06 0.011 594.782 -1.46516 
23 1 0.0687607 0.0608116 0.111976 0 0 0 -6.72548e-06 -6.112e-07 4.03607e-06 -2.36292e-06 -3.53252e-06 3.19377e-06 -0.00304938 -0.000113332 -0.000649361 0.011 594.421 -1.55626 
84 1 0.0135716 0.0732805 0.100602 0 0 0 -3.84704e-06 4.87867e-06 1.9432e-06 -6.33542e-08 -4.50517e-08 1.25063e-07 0.000329031 0.000381726 -2.23594e-05 0.011 594.669 -1.51609 
219 1 0.0316307 0.0712546 0.11252 0 0 0 -2.12798e-06 1.97591e-06 1.49019e-06 -3.00199e-07 1.17048e-08 4.48724e-07 0.000399054 -0.000236693 0.000308025 0.011 594.063 -1.63004 
59 1 0.0506532 0.0683151 0.102673 0 0 0 -1.49747e-06 -2.03111e-06 -4.35212e-06 -4.89203e-08 -6.58073e-07 -1.35557e-08 -2.2869e-05 0.000839666 -0.000688514 0.011 594.442 -1.55243 
158 1 0.0876352 0.0711537 0.112626 0 0 0 2.69332e-06 -7.0287e-06 -4.71783e-06 1.79009e-07 -1.60032e-07 5.81182e-07 -0.000905978 -0.000539846 -0.000328165 0.011 594.41 -1.56155 
176 1 0.0106113 0.0894532 0.114739 0 0 0 -7.89651e-07 7.23891e-07 1.7603e-06 -5.74297e-08 -4.58216e-08 5.04924e-08 -0.000127065 -0.000116751 -9.46269e-06 0.011 593.979 -1.67152 
128 1 0.0375958 0.0892798 0.102108 0 0 0 -5.36678e-06 1.42553e-07 3.5899e-06 -6.95675e-07 -2.09411e-07 5.40804e-07 -0.000402191 0.000311116 -0.000559345 0.011 594.755 -1.47821 
37 1 0.063373 0.0898713 0.105254 0 0 0 -4.65513e-06 2.45884e-06 6.72472e-06 -9.53543e-07 3.7109e-07 1.38243e-06 -0.000823051 0.00063419 -0.000522108 0.011 594.414 -1.56409 
211 1 0.0861893 0.0895474 0.101444 0 0 0 4.20228e-06 6.06899e-07 -3.99051e-06 9.57995e-07 4.20018e-07 1.93155e-07 0.000577432 -0.000124477 0.000443463 0.011 594.431 -1.55646 
250 1 0.0102781 0.0141812 0.133063 0 0 0 -1.68865e-06 -2.22386e-06 3.31994e-06 -1.05025e-07 -9.95023e-08 1.07545e-07 0.000206864 -0.000493197 -0.000352867 0.011 594.405 -1.56216 
87 1 0.0293523 0.0106178 0.123273 0 0 0 -3.8931e-06 -4.30151e-06 3.51417e-06 -1.23782e-07 -1.40038e-07 2.37214e-07 -0.000111461 0.000823641 0.000168081 0.011 594.4 -1.56461 
48 1 0.0483695 0.0154426 0.131907 0 0 0 2.49166e-06 1.12659e-06 -5.5045e-06 -1.34295e-07 5.44458e-08 2.89649e-07 1.75506e-05 0.000410441 0.000561028 0.011 594.459 -1.5387 
215 1 0.0672476 0.0102585 0.123148 0 0 0 1.21925e-05 -6.58114e-06 1.59982e-05 1.42472e-06 1.25219e-06 -9.3834e-07 -0.00130434 -0.00330066 -0.0009538 0.011 594.789 -1.48788 
242 1 0.0894657 0.0110417 0.129599 0 0 0 -2.96671e-05 -3.4337e-06 -3.62973e-05 -3.26892e-07 5.65749e-07 -2.95864e-07 0.000105267 0.00130222 0.000221898 0.011 594.926 -1.42675 
175 1 0.0589635 0.0291888 0.117541 0 0 0 3.78828e-06 -4.8562e-06 4.57137e-06 -9.57577e-06 7.23974e-05 5.02304e-05 0.000576679 -0.000147586 0.000318016 0.011 594.866 -1.45503 
72 1 0.0799087 0.0263661 0.116907 0 0 0 4.24623e-06 1.10861e-05 -2.27435e-05 -3.7098e-07 4.70384e-06 1.6125e-06 0.00322161 0.00358859 0.00253392 0.011 594.901 -1.44406 
82 1 0.0108142 0.0371684 0.130155 0 0 0 -3.91727e-07 -2.01356e-06 -8.74824e-08 -4.77753e-08 -6.82369e-08 7.6691e-08 -9.57236e-05 -0.000176788 -0.000200888 0.011 594.369 -1.57869 
227 1 0.040191 0.034546 0.125451 0 0 0 1.13321e-06 1.57172e-06 5.66583e-06 -1.83372e-06 -2.30968e-06 2.53448e-06 0.00074955 -0.000139169 -0.000793098 0.011 594.43 -1.55194 
67 1 0.0717981 0.0446652 0.1256 0 0 0 -4.72426e-08 1.71168e-06 9.43036e-06 -1.81236e-06 1.71234e-06 6.22004e-06 0.00119879 0.000775342 0.000478334 0.011 594.896 -1.4401 
24 1 0.0895707 0.0350321 0.133289 0 0 0 5.45722e-06 -1.71056e-06 -7.75023e-06 2.65997e-07 -1.19129e-07 -1.48266e-07 0.000409912 -0.000823965 0.000442134 0.011 594.936 -1.41983 
151 1 0.0511762 0.066147 0.124505 0 0 0 2.57395e-06 -3.25917e-06 -3.24151e-06 1.20426e-07 -5.40272e-08 2.55779e-07 2.64011e-05 -0.000163702 -0.00218832 0.011 594.408 -1.56221 
205 1 0.0897513 0.057185 0.128849 0 0 0 2.3817e-06 -6.67456e-06 -1.13153e-05 -2.84978e-09 -4.49317e-07 8.54962e-08 0.00137809 -0.00088955 0.000890821 0.011 594.459 -1.53956 
66 1 0.0105903 0.0685174 0.120376 0 0 0 -3.55313e-07 1.58487e-07 8.31304e-07 -2.88549e-08 -8.40553e-08 1.26244e-07 0.000166583 -5.32511e-05 2.56072e-05 0.011 594.016 -1.65436 
154 1 0.0700192 0.0798265 0.122023 0 0 0 2.48974e-06 -4.9161e-07 -2.78135e-06 5.0421e-09 1.57369e-07 4.55998e-07 0.00128704 0.000575427 -0.000135359 0.011 594.412 -1.55981 
113 1 0.0279088 0.0892587 0.127593 0 0 0 -1.86642e-06 -3.55193e-07 6.20193e-07 -2.66936e-07 -6.97383e-08 2.16417e-07 4.0848e-05 0.000140022 -0.000149907 0.011 593.94 -1.69011 
57 1 0.0486661 0.0879567 0.121137 0 0 0 -2.39266e-06 5.37896e-06 5.37338e-06 -3.98757e-07 8.99613e-07 1.18966e-06 0.000517326 -0.00056131 0.000510694 0.011 593.978 -1.67197 
226 1 0.0894244 0.0898457 0.122582 0 0 0 1.77145e-06 -2.36832e-06 -3.78555e-06 -3.99149e-08 4.90004e-08 1.76431e-07 0.000259162 -5.01893e-05 0.000164199 0.011 594.409 -1.5612 
115 1 0.0349097 0.00967738 0.147786 0 0 0 2.74455e-06 -6.24552e-07 -5.06148e-07 -1.06534e-07 -5.46152e-08 2.57586e-07 1.17575e-06 -2.34112e-05 -0.000240119 0.011 594.417 -1.5539 
137 1 0.0807298 0.0101881 0.14847 0 0 0 -4.43927e-06 -1.32759e-06 -9.8284e-06 -5.96343e-08 -1.07333e-09 -1.97798e-08 -0.000457967 0.00115526 0.000314271 0.011 594.913 -1.43078 
134 1 0.0263019 0.0262736 0.139303 0 0 0 6.66224e-09 -1.18711e-06 2.30764e-06 -2.97352e-07 -5.24673e-08 3.6895e-07 -2.76761e-05 0.000299894 0.000278548 0.011 594.407 -1.56106 
129 1 0.0507485 0.0308355 0.146554 0 0 0 6.02096e-07 4.83791e-07 6.04468e-07 -7.22108e-08 1.23499e-08 4.22366e-07 0.000467483 -0.00018415 0.000147711 0.011 594.852 -1.45625 
75 1 0.0700298 0.0264401 0.137482 0 0 0 1.22787e-06 4.03413e-07 -4.81737e-07 1.71569e-08 2.76781e-08 6.06185e-07 -0.000627571 0.00029826 -0.000439159 0.011 594.936 -1.41949 
198 1 0.0289122 0.0475845 0.137643 0 0 0 8.86446e-07 7.22934e-08 3.2437e-06 -1.5064e-07 -2.08605e-08 3.73576e-07 2.84662e-06 -0.000450416 4.04245e-05 0.011 594.337 -1.59136 
244 1 0.0620006 0.0485662 0.144287 0 0 0 -1.78649e-06 -1.04895e-06 3.2911e-06 -4.52768e-08 5.2327e-08 9.27039e-07 -0.000925997 -0.000660143 0.000250287 0.011 594.862 -1.45462 
135 1 0.0847493 0.0491535 0.148405 0 0 0 3.27455e-06 -3.08292e-06 -8.54777e-06 1.78936e-07 -2.25083e-07 -8.71896e-08 -0.000647136 0.000756984 -0.000303878 0.011 594.878 -1.44658 
71 1 0.00991297 0.056703 0.137454 0 0 0 1.20583e-07 -7.14162e-07 -4.029e-07 -7.12481e-08 -2.83465e-08 1.2547e-07 -4.0903e-06 1.41282e-05 3.39659e-05 0.011 594.018 -1.65184 
10 1 0.0453634 0.0626075 0.145413 0 0 0 -8.31836e-07 -1.1113e-06 -3.04466e-06 -1.36125e-07 -9.26969e-08 8.22931e-08 0.00030133 0.000252408 -0.00025756 0.011 594.021 -1.65007 
17 1 0.0720906 0.0654353 0.136836 0 0 0 1.44916e-06 -8.66584e-06 -7.10934e-06 2.29485e-07 -5.29008e-07 1.44654e-07 -0.000240564 0.000377399 -0.000837356 0.011 594.444 -1.54601 
29 1 0.010547 0.0805238 0.137846 0 0 0 -8.40497e-07 -4.93004e-07 8.01424e-07 -1.26886e-07 -4.88172e-08 1.05341e-07 -8.0899e-05 -3.6573e-05 -5.08784e-05 0.011 593.947 -1.68537 
132 1 0.0280526 0.0685316 0.133565 0 0 0 -1.35688e-06 -2.80365e-07 1.03694e-06 -2.2863e-07 -6.80891e-08 3.00727e-07 -0.000148212 0.000130736 0.000143678 0.011 593.974 -1.67291 
170 1 0.0351473 0.0822775 0.148395 0 0 0 -1.48671e-06 1.40498e-06 -5.2713e-07 -1.71347e-07 5.93904e-08 1.72607e-07 -0.000238638 -0.000436958 -0.000478589 0.011 593.947 -1.68715 
173 1 0.0556914 0.0812715 0.140677 0 0 0 -2.18425e-06 -4.88173e-07 1.03022e-06 -2.68878e-07 -7.34925e-08 4.61085e-07 0.000407663 0.00035694 0.000237424 0.011 594.366 -1.58381 
50 1 0.0799641 0.0848752 0.140414 0 0 0 2.4818e-06 -5.779e-06 -4.38526e-06 1.65702e-07 -3.43039e-07 1.32729e-07 -0.000208729 -0.000279065 0.000619001 0.011 594.406 -1.56307 
252 1 0.0112915 0.0114412 0.154227 0 0 0 -0.000436711 -0.000158926 3.93879e-06 -3.06015e-06 1.55991e-06 3.14942e-07 -0.0222572 0.0590348 -0.760839 0.011 594.445 -1.54205 
101 1 0.048318 0.0164208 0.161937 0 0 0 2.22338e-06 -1.3505e-06 -1.1836e-06 -5.78031e-08 -1.0039e-07 2.17448e-07 -0.00012786 1.43826e-05 4.02227e-05 0.011 594.542 -1.50165 
171 1 0.068159 0.0101683 0.164893 0 0 0 2.22627e-06 -7.63381e-07 -1.74e-06 -1.42835e-08 -8.97242e-08 6.36436e-08 2.20233e-05 7.15367e-05 -2.9612e-05 0.011 594.826 -1.46652 
248 1 0.089461 0.028793 0.153384 0 0 0 -1.40418e-06 -1.56519e-06 -6.83411e-06 -3.62733e-08 -5.58673e-08 -1.36687e-08 0.000289563 -0.000262757 -0.000224306 0.011 594.906 -1.43329 
136 1 0.0107574 0.03757 0.151741 0 0 0 -3.95488e-07 1.13645e-06 -7.94234e-07 -4.54672e-08 2.29525e-08 9.24598e-08 -0.000193913 0.000125647 0.00010366 0.011 594.436 -1.54701 
193 1 0.0326593 0.0374633 0.156005 0 0 0 -1.50414e-07 -9.75946e-07 1.07881e-06 -1.79276e-07 -5.80202e-08 2.8079e-07 5.18596e-05 7.74822e-05 -1.65251e-05 0.011 594.501 -1.52047 
179 1 0.0690767 0.0337246 0.158039 0 0 0 1.44534e-06 3.31222e-07 9.0482e-07 3.10355e-08 7.13156e-09 5.88794e-07 0.000698445 0.000465923 8.13355e-05 0.011 594.908 -1.43194 
74 1 0.0226519 0.0610596 0.153408 0 0 0 -7.16634e-07 -4.89303e-07 4.82785e-07 -1.36966e-07 -3.74472e-08 2.19532e-07 3.30932e-05 -3.72269e-05 -4.44239e-05 0.011 594.063 -1.63175 
197 1 0.0658653 0.067348 0.156421 0 0 0 3.62294e-06 -3.28171e-06 -4.75715e-06 1.26688e-07 -5.84474e-08 3.42316e-08 1.30888e-05 -1.91547e-05 -9.13174e-05 0.011 594.371 -1.57867 
76 1 0.087135 0.0694824 0.153393 0 0 0 4.76122e-06 -1.8619e-06 -5.66973e-06 2.40626e-07 -1.2793e-07 4.72684e-08 0.000528227 -0.000156335 0.000286408 0.011 594.409 -1.56229 
56 1 0.014163 0.0895893 0.156584 0 0 0 -2.73464e-07 1.54497e-08 1.63336e-07 -4.2766e-08 -1.19582e-08 6.04258e-08 -5.48579e-06 5.79968e-05 -3.41976e-05 0.011 594.023 -1.65006 
65 1 0.0463631 0.0894547 0.165194 0 0 0 -1.31711e-07 -2.9565e-07 -8.19279e-07 -1.93387e-08 -2.89399e-08 7.18669e-08 8.26507e-05 0.000353656 -4.29076e-05 0.011 593.977 -1.6714 
119 1 0.0672239 0.0892552 0.157398 0 0 0 1.05391e-06 -2.50257e-06 -2.21787e-06 4.14597e-08 -1.85283e-07 9.99746e-08 -2.6186e-05 0.000236276 -1.37819e-05 0.011 594.372 -1.57978 
236 1 0.0897944 0.0897935 0.158445 0 0 0 9.14418e-08 -7.8013e-07 -8.81595e-07 1.20512e-08 -4.49614e-08 1.10325e-07 -1.58323e-06 -1.45072e-06 4.6666e-05 0.011 594.365 -1.58247 
107 1 0.0115222 0.0106744 0.175586 0 0 0 -2.76374e-05 -2.70165e-06 5.20403e-06 -1.84459e-07 1.14159e-08 9.46916e-08 -0.000159358 0.00540747 0.00213284 0.011 594.943 -1.42198 
81 1 0.0347411 0.0105195 0.177322 0 0 0 4.12329e-06 2.35089e-07 1.09269e-06 3.31315e-08 -5.1259e-09 1.44353e-07 6.66743e-05 0.000488426 -0.000248598 0.011 594.933 -1.42634 
143 1 0.0894264 0.0122011 0.168141 0 0 0 1.0209e-06 -1.25568e-06 -5.62652e-06 -5.1165e-09 -3.20802e-08 -8.7393e-09 0.000656474 -0.000350289 0.000114362 0.011 594.534 -1.51571 
31 1 0.0404819 0.0312282 0.174775 0 0 0 2.09512e-06 -6.94265e-07 -8.30172e-07 6.32726e-08 -1.73222e-08 1.72503e-07 -2.08412e-05 0.000127985 0.000172771 0.011 594.865 -1.45472 
144 1 0.0608948 0.0261752 0.176072 0 0 0 2.68668e-06 -1.86238e-06 -8.482e-07 7.60799e-08 -2.27275e-07 2.16219e-07 -2.2914e-05 -0.000172125 -0.000223598 0.011 594.573 -1.50142 
131 1 0.0181094 0.0343133 0.17172 0 0 0 -7.77211e-07 6.51794e-07 -9.62655e-07 -2.85936e-08 4.39568e-08 1.7877e-07 0.000166868 -0.000129214 -0.000305959 0.011 594.906 -1.43974 
38 1 0.052055 0.0478705 0.182608 0 0 0 1.74989e-06 1.0077e-07 -1.4787e-06 6.4128e-08 7.70013e-09 9.19233e-08 4.49059e-06 0.00010593 2.50737e-05 0.011 594.51 -1.53085 
55 1 0.0892417 0.0412925 0.170438 0 0 0 -1.32953e-07 -1.90825e-06 -1.80734e-06 2.20628e-08 -1.27153e-08 -8.40421e-09 4.78705e-05 5.15337e-05 -4.88586e-05 0.011 594.483 -1.54197 
124 1 0.0106761 0.0599138 0.174834 0 0 0 3.97037e-07 -6.43183e-08 3.75569e-07 8.92943e-09 1.80826e-08 1.05761e-07 -1.40501e-05 -3.68929e-05 -9.78079e-06 0.011 594.705 -1.47966 
196 1 0.0303946 0.0519039 0.171181 0 0 0 8.57555e-07 -4.49982e-07 -8.91019e-08 1.48224e-08 1.43707e-08 1.64223e-07 -9.81178e-05 0.000121315 5.44906e-05 0.011 594.658 -1.50117 