ITEM: TIMESTEP
200000
ITEM: NUMBER OF ATOMS
1005
ITEM: BOX BOUNDS mm mm mm
0 0.1
0 0.1
0 1.1
ITEM: ATOMS id type x y z ix iy iz vx vy vz fx fy fz omegax omegay omegaz radius f_Temp[0] f_heatFlux[0] 
152 1 0.0254473 0.0104914 0.0102223 0 0 0 -8.53094e-07 -8.04263e-07 -1.83163e-06 -7.90446e-06 -1.99578e-08 5.64306e-06 2.08185e-05 0.000180938 -0.000100344 0.011 590.721 -2.59458 
97 1 0.0100958 0.0228964 0.0166302 0 0 0 1.64579e-07 -2.52591e-08 3.04598e-07 -3.75603e-06 2.83626e-07 -5.03812e-07 3.11189e-05 -3.19761e-05 -7.33132e-06 0.011 590.765 -2.56251 
231 1 0.0360308 0.0295069 0.0103009 0 0 0 -5.69831e-07 -9.92844e-07 -2.51397e-06 1.23466e-05 5.37991e-05 -4.1802e-06 1.20084e-05 2.39827e-05 0.000139899 0.011 590.732 -2.58617 
89 1 0.0620428 0.017154 0.0104248 0 0 0 -3.75802e-06 -3.2992e-06 1.448e-07 -5.26139e-05 4.14646e-05 -1.86171e-05 -7.70927e-05 -0.000363625 -0.000722057 0.011 589.417 -2.93226 
216 1 0.0812387 0.026958 0.00999374 0 0 0 8.22089e-07 -3.38462e-06 -5.21356e-07 -5.00223e-05 0.00010364 -1.21961e-05 0.000221988 0.000225326 0.00122675 0.011 589.351 -2.96076 
155 1 0.0150044 0.0423283 0.0103376 0 0 0 -1.44568e-06 6.61167e-07 1.99715e-07 -5.72134e-06 2.03104e-06 4.31826e-06 -6.77729e-05 -0.000128578 0.000231069 0.011 590.77 -2.56745 
79 1 0.0644542 0.0460881 0.0105442 0 0 0 -5.94902e-06 -4.7025e-06 -4.39827e-06 -8.04151e-06 3.52379e-05 2.03392e-05 2.60684e-05 -0.00019884 0.00226098 0.011 589.652 -2.80946 
180 1 0.0339234 0.0582289 0.0104701 0 0 0 4.29158e-06 -1.51546e-07 1.04556e-07 2.22474e-05 -2.6781e-05 2.05573e-05 3.51964e-05 0.000404523 -4.13007e-05 0.011 591.267 -2.43303 
33 1 0.0814221 0.0599299 0.0102585 0 0 0 -1.81373e-05 -1.50392e-05 4.67524e-06 5.44975e-05 0.000114995 -5.56807e-05 0.00110164 -0.00165041 -0.00274945 0.011 591.912 -2.27653 
2 1 0.0105506 0.0718177 0.00973621 0 0 0 2.25817e-08 1.00663e-06 -5.49898e-07 6.95765e-06 2.91031e-06 8.52343e-07 -9.24941e-05 3.35362e-05 9.33142e-05 0.011 591.273 -2.42912 
30 1 0.0423263 0.0807626 0.00999999 0 0 0 1.39161e-06 1.40706e-06 -4.52289e-07 3.91704e-06 -3.67896e-06 -2.90388e-06 -0.000144077 0.000179761 0.000408015 0.011 591.312 -2.41148 
253 1 0.0601209 0.0675848 0.0106238 0 0 0 -7.5796e-06 -5.29104e-06 3.42219e-06 1.47036e-05 1.81704e-05 4.92241e-05 0.000276039 -0.00035234 -0.000964931 0.011 591.925 -2.27021 
25 1 0.0890665 0.0801608 0.00996563 0 0 0 2.28679e-06 -1.13536e-05 5.47028e-06 -2.03887e-06 2.70319e-05 -3.24778e-05 0.000223103 0.000500547 0.00111229 0.011 592.001 -2.22824 
233 1 0.0222916 0.0895167 0.0118684 0 0 0 -4.34093e-07 2.32325e-07 -4.5021e-07 -1.20207e-06 1.16969e-06 -3.11252e-06 4.65889e-05 -0.000108423 -8.94323e-05 0.011 591.257 -2.44112 
192 1 0.0689577 0.0890033 0.0109506 0 0 0 -2.65432e-06 -4.12305e-06 1.33893e-06 -5.85262e-06 -7.92866e-06 -1.95745e-06 0.000156516 -0.00040198 -0.00100268 0.011 591.988 -2.23813 
166 1 0.0440617 0.0107334 0.0202807 0 0 0 -6.66521e-06 -3.31629e-06 -3.75957e-06 -3.87171e-05 6.22688e-06 8.35182e-06 0.00033846 -0.00047853 0.000285959 0.011 590.574 -2.66349 
203 1 0.0627323 0.0103223 0.0310001 0 0 0 -1.37687e-05 -2.39984e-06 1.81385e-06 -1.11945e-05 2.10002e-05 -2.61434e-05 0.000126698 -0.000327765 0.00073219 0.011 589.455 -2.90442 
234 1 0.0888477 0.0102833 0.0207298 0 0 0 -3.62773e-06 -6.23535e-06 6.16624e-06 5.87528e-05 0.00010137 9.52999e-05 0.00101655 -0.00436796 0.000455689 0.011 589.342 -2.96839 
22 1 0.067454 0.0308905 0.0259817 0 0 0 -2.20526e-07 -6.62024e-06 -2.97655e-07 -3.21937e-05 3.4924e-05 -4.35603e-06 0.000205734 -0.000137511 -0.00147052 0.011 589.474 -2.89156 
104 1 0.0246183 0.0349097 0.0292662 0 0 0 -4.38172e-06 -2.89377e-06 -2.18512e-06 1.2904e-05 3.18505e-05 1.854e-05 -0.000592868 0.000137149 -7.95452e-05 0.011 590.792 -2.5469 
35 1 0.0463013 0.0343851 0.0280706 0 0 0 -4.32661e-06 -2.99317e-07 -2.4713e-06 9.30569e-06 4.15552e-05 3.05192e-05 0.000472124 -0.000327402 0.000364221 0.011 590.807 -2.54411 
147 1 0.0896072 0.0357719 0.0270653 0 0 0 -1.30605e-06 -1.04223e-05 2.99696e-06 -6.29311e-05 0.000195371 -9.6317e-05 0.00173789 0.000306851 0.000174151 0.011 589.583 -2.84162 
8 1 0.0158782 0.0580096 0.0245503 0 0 0 1.33592e-06 2.03931e-06 -8.25374e-07 9.8484e-06 -2.58924e-06 1.348e-05 -9.33334e-05 0.000333516 -0.000372059 0.011 591.203 -2.46017 
63 1 0.0362762 0.0531949 0.0311907 0 0 0 1.16235e-06 -2.62312e-06 2.17278e-06 5.50029e-05 1.96961e-05 6.84988e-05 3.29206e-05 -0.000663539 -0.000401004 0.011 591.438 -2.3566 
99 1 0.0576248 0.0556999 0.0284721 0 0 0 2.39903e-06 -2.51629e-05 4.46787e-06 4.62561e-05 -0.000126893 4.8882e-05 0.0018349 0.0019445 -0.000976774 0.011 591.946 -2.26109 
224 1 0.0872028 0.0564815 0.0302813 0 0 0 -1.12895e-05 -1.74868e-05 8.17946e-06 -1.51309e-05 0.000206389 -9.27703e-05 -0.00159951 0.00293228 0.000919248 0.011 591.865 -2.28963 
126 1 0.0103592 0.0787914 0.0293281 0 0 0 1.37574e-06 -4.95498e-07 -1.09235e-07 1.50602e-05 -1.11374e-05 3.37198e-06 0.000269214 0.000112216 -6.07105e-05 0.011 591.564 -2.29264 
163 1 0.0308223 0.0731117 0.0256592 0 0 0 3.47654e-06 -4.44176e-07 -3.2102e-07 2.78476e-05 -1.40214e-05 6.26056e-06 -2.29847e-05 -0.000368553 0.00015503 0.011 591.322 -2.39517 
12 1 0.0745035 0.0734472 0.0257518 0 0 0 -9.50811e-06 -1.46836e-05 7.04633e-06 2.5286e-05 0.000106311 -6.35121e-05 -0.000541179 -0.00063366 -0.00137967 0.011 591.998 -2.23066 
257 1 0.0531554 0.089264 0.0262306 0 0 0 -9.88544e-08 4.35203e-07 -1.88044e-06 -3.09685e-06 1.66071e-05 -7.49922e-06 0.000315895 1.77386e-05 -9.29469e-05 0.011 591.949 -2.25391 
243 1 0.0892874 0.0891937 0.0286299 0 0 0 1.22619e-07 -7.63758e-06 2.36505e-06 -1.22207e-05 2.34452e-05 -6.28016e-06 -0.000564145 6.40241e-05 0.000534834 0.011 592.2 -2.13374 
223 1 0.0367024 0.0106941 0.0405243 0 0 0 -1.94603e-05 -7.74041e-06 -1.19839e-05 -9.89129e-06 -1.00714e-05 1.63983e-05 -0.000936549 -0.000332055 0.0016188 0.011 590.869 -2.51221 
70 1 0.0104579 0.0206618 0.0372899 0 0 0 -3.33806e-06 1.01729e-07 8.66375e-07 -7.33543e-06 -2.93279e-06 -5.96606e-06 -3.39613e-05 -0.000264023 0.000130745 0.011 591.236 -2.34289 
45 1 0.0533556 0.0234891 0.0450326 0 0 0 -3.36856e-05 -5.37213e-06 -1.6939e-06 2.77662e-05 2.68897e-05 -2.74659e-05 0.000193454 -0.00217519 -0.000542182 0.011 590.056 -2.62855 
108 1 0.0809252 0.0194474 0.0384414 0 0 0 -2.2602e-05 -7.45088e-06 -1.19859e-05 -3.47754e-05 0.000290963 3.55715e-05 -0.00134705 0.000711006 -0.00148504 0.011 589.642 -2.82395 
96 1 0.0118128 0.0470099 0.0420231 0 0 0 -2.10823e-06 6.85155e-07 -3.01449e-06 2.04018e-05 -5.23392e-06 2.06894e-05 0.000489783 -0.000192784 -0.000445234 0.011 591.091 -2.40609 
9 1 0.0408259 0.0409406 0.047862 0 0 0 -2.20148e-06 -7.32125e-06 2.11831e-06 5.0258e-05 -3.6109e-05 6.36888e-05 0.000785788 0.000426113 -0.0018213 0.011 593.719 -1.87005 
80 1 0.0755096 0.0427643 0.0417088 0 0 0 9.35911e-06 -3.25451e-05 2.36831e-05 -9.00394e-06 0.00016585 -6.7974e-05 0.00213469 -0.000365521 0.000365548 0.011 590.206 -2.56904 
146 1 0.0234894 0.0652285 0.0441917 0 0 0 4.46565e-06 -2.09178e-06 -1.57773e-07 5.62888e-05 -3.76613e-05 1.98835e-05 9.88009e-05 0.000523594 -0.000119328 0.011 591.723 -2.21316 
182 1 0.0584047 0.0528268 0.0495909 0 0 0 2.17526e-05 -2.84086e-05 1.40168e-05 6.75262e-05 -3.72383e-05 -1.44963e-05 -0.00216838 -0.000499879 0.000251296 0.011 593.9 -1.81635 
240 1 0.0106825 0.0818066 0.0498454 0 0 0 3.85695e-06 -7.68445e-07 6.42853e-07 2.15364e-05 -1.79596e-05 6.02727e-06 -0.000215078 -3.47953e-05 -4.69698e-05 0.011 594.238 -1.72444 
204 1 0.0466079 0.0738941 0.0406818 0 0 0 4.70081e-06 -9.23125e-06 4.30243e-06 8.45605e-06 -2.15606e-05 -1.72044e-05 -0.000850284 0.000282582 -0.00205922 0.011 591.452 -2.33815 
78 1 0.0692238 0.0709014 0.0483656 0 0 0 7.78687e-06 -1.24623e-05 -4.14128e-06 -1.74713e-05 7.99732e-05 -4.45512e-05 -0.000249046 0.00078767 0.00139037 0.011 594.225 -1.66767 
212 1 0.0899714 0.0687315 0.0468701 0 0 0 4.19196e-06 -1.48743e-06 -5.28603e-06 -4.31414e-05 8.23707e-05 -1.29936e-05 7.26226e-05 -0.000513781 -7.64578e-06 0.011 594.173 -1.69827 
32 1 0.0268322 0.0897766 0.037709 0 0 0 3.61815e-06 -1.68202e-06 -5.61254e-07 5.73494e-06 -6.82493e-07 -2.46934e-06 0.000186638 0.000555231 7.3557e-05 0.011 591.666 -2.23986 
34 1 0.07026 0.0898177 0.0390858 0 0 0 -1.95718e-06 -5.85403e-06 -8.85414e-07 -2.31345e-05 3.71912e-05 -1.37479e-05 0.000181379 -0.000260217 -0.000259866 0.011 592.286 -2.09464 
217 1 0.0892414 0.0898426 0.0494489 0 0 0 4.79393e-07 -2.08518e-06 -1.95085e-07 6.06836e-07 1.33584e-05 1.69117e-05 6.5568e-05 5.26725e-05 0.000239144 0.011 594.113 -1.71391 
258 1 0.0129914 0.0100019 0.0550988 0 0 0 -4.27394e-06 8.36137e-07 1.0581e-06 2.02772e-06 -9.59127e-06 -1.49019e-06 -1.70207e-05 -0.00012293 0.000347962 0.011 593.988 -1.74457 
164 1 0.0340162 0.0103392 0.0619138 0 0 0 2.41163e-06 1.71707e-06 -7.20416e-06 2.72781e-05 -7.25027e-06 -2.04224e-05 -0.000346734 0.00219657 -0.000293171 0.011 594.064 -1.71424 
15 1 0.0686517 0.0109556 0.0545405 0 0 0 -2.34426e-05 -6.46224e-06 2.27181e-06 -6.75996e-05 0.00016021 3.30129e-05 0.000468715 0.000818524 0.00170454 0.011 592.851 -2.03439 
64 1 0.0256343 0.026707 0.0511046 0 0 0 -8.76325e-06 2.69387e-06 5.70961e-07 -1.51326e-05 1.96452e-06 -1.19434e-05 7.34572e-05 0.000206282 0.000241163 0.011 594.02 -1.73847 
191 1 0.0895719 0.0319066 0.0533598 0 0 0 -1.01683e-05 -5.24681e-05 -2.33015e-06 -4.89417e-05 0.000338889 3.56376e-05 0.00681399 0.000361323 0.000983096 0.011 592.544 -2.16936 
199 1 0.0102995 0.0380893 0.0609941 0 0 0 -1.97474e-06 9.61618e-07 -1.00277e-06 5.21467e-05 -2.67588e-05 1.17235e-05 -0.000536468 0.000258202 6.29887e-05 0.011 594.007 -1.73402 
123 1 0.0652399 0.0343444 0.0585697 0 0 0 8.38481e-06 -7.3494e-05 5.70716e-06 -0.000107055 0.000174959 -2.19945e-05 0.00359394 0.00286091 -0.0076497 0.011 592.65 -2.10901 
43 1 0.0106013 0.06049 0.0611532 0 0 0 2.61029e-06 1.21826e-06 2.73488e-07 5.01852e-05 -5.29516e-05 -1.74783e-05 -8.62494e-05 -9.06243e-05 -7.61399e-05 0.011 594.667 -1.52666 
161 1 0.0394508 0.0598862 0.0574845 0 0 0 1.01426e-05 -9.3765e-06 1.70668e-06 9.91533e-05 -4.07141e-05 1.93349e-05 -0.000175828 -0.000740068 -0.000332307 0.011 594.463 -1.62509 
92 1 0.089435 0.0558652 0.0648151 0 0 0 -2.4917e-05 -3.17962e-05 -2.55179e-05 -2.52599e-05 0.000243774 -4.11362e-05 0.00824809 -0.00253166 0.00343522 0.011 594.348 -1.60136 
54 1 0.0259858 0.0756817 0.063709 0 0 0 8.7504e-06 -2.12608e-06 -3.08363e-06 2.99289e-05 -2.76751e-05 -1.74398e-05 3.40636e-05 0.000488871 -0.000223025 0.011 594.772 -1.4849 
185 1 0.0534559 0.0751338 0.0613726 0 0 0 1.26783e-05 -1.16315e-05 3.88691e-06 -5.54597e-05 4.02381e-05 -3.74921e-05 -5.0336e-05 5.85822e-05 -0.00129173 0.011 594.347 -1.61066 
4 1 0.0399249 0.089707 0.0543672 0 0 0 1.16371e-05 -1.37865e-06 -1.20678e-06 -1.51026e-05 -4.93054e-06 -2.30022e-05 7.3794e-05 -0.000282949 0.000808617 0.011 594.479 -1.61575 
52 1 0.0140749 0.0209844 0.0728801 0 0 0 4.8598e-06 2.08844e-06 1.21526e-06 3.99637e-05 -1.83362e-05 -1.82156e-06 8.78708e-05 0.00100213 -0.000547557 0.011 594.254 -1.62029 
28 1 0.0400626 0.0320427 0.0674215 0 0 0 1.28282e-05 -7.3496e-06 -6.20887e-07 9.56402e-05 -0.000142522 4.13947e-05 -0.000277586 0.00118454 -0.000471392 0.011 594.196 -1.64686 
232 1 0.0333492 0.017547 0.0819464 0 0 0 2.00214e-05 -2.86329e-06 -6.88194e-06 4.86274e-05 -5.46424e-05 -1.46839e-05 0.000553964 -0.000274139 0.000665852 0.011 594.209 -1.63551 
103 1 0.0862873 0.0167691 0.0676279 0 0 0 0.00108319 -0.000391284 -0.000100159 0.000754278 -0.000566737 -0.000742568 -0.0407475 -0.213875 0.347857 0.011 592.982 -1.96996 
153 1 0.0266115 0.0487991 0.0697431 0 0 0 3.23661e-06 -1.68595e-06 -2.26549e-06 0.000126424 -3.06323e-05 4.72811e-05 9.45054e-05 -4.35454e-05 -0.000137916 0.011 594.348 -1.57849 
140 1 0.0580432 0.0362433 0.0784877 0 0 0 4.16639e-05 -4.28717e-05 -3.19434e-07 2.55072e-05 6.66543e-05 -8.75947e-05 6.02386e-05 0.00026566 -0.00282708 0.011 593.254 -1.8387 
189 1 0.0810333 0.0376033 0.0723356 0 0 0 3.03631e-05 -6.46302e-05 -9.847e-06 -0.000325996 -3.64947e-05 4.03928e-05 -0.0099965 -0.000906179 0.00541102 0.011 593.13 -1.89911 
200 1 0.0104471 0.0513286 0.083192 0 0 0 1.29507e-06 1.3813e-06 -1.98923e-06 2.35273e-05 -2.02764e-05 -2.54705e-05 -0.000536043 -5.57116e-06 0.000338337 0.011 594.749 -1.48382 
157 1 0.0560352 0.0559519 0.0707394 0 0 0 2.27911e-05 -1.08603e-05 1.39278e-06 3.62642e-05 4.80912e-06 -2.61874e-05 0.000227659 0.00114696 0.00268975 0.011 594.364 -1.59995 
14 1 0.0104601 0.0722666 0.0801944 0 0 0 1.39794e-06 -8.26738e-07 -2.51322e-06 1.24897e-05 -6.28391e-06 -1.36345e-05 0.000283902 0.000275938 -0.000280713 0.011 594.808 -1.45861 
69 1 0.0401964 0.06842 0.078552 0 0 0 6.66888e-06 -1.00717e-05 -2.79298e-06 -2.47671e-05 -9.93751e-05 -4.56577e-05 -0.000289054 -0.00119703 -0.00113206 0.011 594.797 -1.46253 
85 1 0.0738156 0.0699131 0.0696526 0 0 0 -4.19492e-05 -5.18307e-05 3.32657e-06 5.02928e-05 0.000311511 -7.98548e-05 0.00478825 -0.00611114 -0.00604521 0.011 594.431 -1.56089 
209 1 0.0105732 0.0898516 0.0690394 0 0 0 2.77961e-06 2.54974e-07 -1.90873e-07 3.05636e-06 -5.36316e-06 1.48013e-06 5.39859e-05 -7.13477e-05 0.000175721 0.011 594.782 -1.47761 
127 1 0.0374769 0.0896615 0.0753386 0 0 0 7.14709e-06 -1.93365e-06 -2.30189e-06 -1.25946e-05 -1.62656e-05 1.60624e-06 0.000141066 -0.000179615 0.000613468 0.011 594.773 -1.47656 
183 1 0.0653198 0.0896869 0.0712195 0 0 0 1.30452e-05 -1.24141e-05 7.48545e-06 -0.000159657 6.04161e-05 -6.85096e-06 -0.000802098 -0.00174072 0.000510042 0.011 594.439 -1.55573 
194 1 0.0893176 0.0897644 0.0700217 0 0 0 1.31314e-07 1.24831e-06 3.58112e-07 1.5122e-05 3.15012e-05 3.67226e-05 -0.000300418 -1.93557e-05 -2.61761e-05 0.011 594.416 -1.57206 
187 1 0.0105523 0.0103439 0.0908398 0 0 0 4.37095e-06 1.47654e-06 2.90108e-07 2.577e-05 -1.68268e-06 5.05628e-06 5.92225e-05 -6.47402e-05 -0.000236267 0.011 594.296 -1.59171 
229 1 0.0867757 0.00985404 0.0875217 0 0 0 6.4005e-05 1.61264e-05 5.94477e-05 -0.000857439 -6.43687e-05 -0.000401525 0.0062451 -0.00638327 -0.00619916 0.011 593.13 -1.89088 
58 1 0.0107793 0.0316264 0.0910409 0 0 0 7.90999e-06 3.14051e-06 3.36667e-06 3.97115e-05 7.54132e-06 4.84472e-06 7.03753e-05 -0.000730218 0.000153825 0.011 594.33 -1.57642 
53 1 0.0528128 0.0187819 0.0909081 0 0 0 4.20733e-05 -4.16857e-05 -1.02897e-05 -4.16498e-05 0.000284885 6.7857e-05 -0.00242034 0.00042109 -0.00547323 0.011 593.211 -1.84827 
167 1 0.0729394 0.025542 0.0880484 0 0 0 5.58238e-05 -1.00268e-05 1.85972e-05 -0.000336379 2.89202e-05 0.000154569 -0.00152643 -0.00402475 0.00752997 0.011 593.077 -1.90281 
49 1 0.0307599 0.03814 0.0876049 0 0 0 1.94324e-05 -2.79051e-06 -9.34171e-06 8.73725e-05 -5.24153e-05 1.62962e-05 -0.00042247 0.00237415 -0.000694428 0.011 594.313 -1.58568 
39 1 0.0897533 0.0377303 0.0918711 0 0 0 1.33975e-05 2.526e-05 1.1947e-05 1.35833e-05 -0.000254923 2.69527e-05 0.00130214 0.0011615 -0.0025046 0.011 593.251 -1.83286 
102 1 0.0284127 0.0591564 0.0943155 0 0 0 7.57598e-06 -3.21022e-06 -1.24471e-05 2.51409e-05 -6.56247e-05 -3.48369e-05 0.000454441 0.00167874 -0.000205298 0.011 594.795 -1.4645 
47 1 0.0478014 0.0509475 0.0901403 0 0 0 2.37257e-05 -1.05718e-05 -7.47629e-06 6.10791e-05 -9.35558e-05 -9.26487e-05 -0.000847795 -0.00323002 0.000385326 0.011 594.649 -1.53186 
255 1 0.072464 0.0532978 0.0843275 0 0 0 1.21647e-05 -1.75303e-05 -3.13485e-05 -3.62661e-05 -6.21214e-05 0.00017144 0.00299567 0.000678751 -0.0018107 0.011 594.323 -1.61264 
260 1 0.0897754 0.0584181 0.0958549 0 0 0 8.99923e-06 -3.51573e-06 -4.84695e-06 -2.4871e-05 -8.07424e-05 -2.47975e-06 -0.00190149 -0.00147207 0.00208621 0.011 594.362 -1.59232 
93 1 0.0702563 0.0726131 0.0941189 0 0 0 5.87375e-06 -8.89865e-06 -6.41143e-06 2.42541e-05 4.08425e-06 -4.97495e-05 -0.00097581 0.000117045 0.000417313 0.011 594.438 -1.55532 
133 1 0.0892947 0.076174 0.0853086 0 0 0 -3.11401e-07 -2.86257e-06 -6.63466e-06 -5.40153e-06 -1.2165e-05 -3.45892e-06 0.00127319 -0.000356117 0.000282351 0.011 594.434 -1.55842 
256 1 0.0207004 0.0893783 0.088346 0 0 0 3.65611e-06 -2.41068e-06 -1.63055e-06 9.99883e-07 -8.21687e-06 -8.2336e-06 -2.27843e-05 -1.38277e-05 -2.62239e-06 0.011 594.813 -1.45536 
6 1 0.0531516 0.0837577 0.0878209 0 0 0 4.37607e-06 -3.81038e-06 -3.51325e-06 -4.67223e-05 1.08567e-05 -5.38873e-06 -5.9754e-05 0.000289987 -0.000765958 0.011 594.48 -1.53604 
246 1 0.0105974 0.0104826 0.11218 0 0 0 2.93703e-06 2.91087e-06 -1.30166e-06 1.15502e-05 7.55144e-06 -5.5327e-06 -3.39332e-05 2.58088e-05 0.000203319 0.011 594.387 -1.57066 
149 1 0.0295165 0.0106072 0.101696 0 0 0 1.17888e-05 -9.52869e-07 -7.90552e-06 2.28298e-05 -1.9482e-05 -1.53628e-05 -0.000895898 0.000216334 -0.00106576 0.011 594.297 -1.59243 
156 1 0.0493609 0.0107077 0.110753 0 0 0 7.38061e-06 -2.49928e-06 -1.70305e-06 5.46463e-05 -7.08499e-06 -2.72306e-05 -0.000350492 -0.00131692 -0.000609624 0.011 594.364 -1.58195 
91 1 0.0702191 0.0100987 0.10186 0 0 0 2.77952e-05 -5.51399e-07 3.35197e-06 -0.000157006 4.10631e-05 0.000243432 0.000684306 -0.00461108 -0.00280873 0.011 593.267 -1.82409 
241 1 0.0901053 0.0104338 0.108607 0 0 0 4.50327e-06 -1.44109e-05 2.59489e-05 8.53055e-05 9.44552e-05 -0.000119284 -0.00087048 0.00162066 0.000847051 0.011 594.675 -1.53961 
139 1 0.016445 0.0310478 0.111082 0 0 0 5.36183e-07 2.16419e-06 2.47336e-06 1.3076e-05 1.25706e-05 6.44761e-06 0.000200877 3.58369e-05 -1.00897e-06 0.011 594.389 -1.56961 
249 1 0.0399569 0.029489 0.10476 0 0 0 2.75325e-05 -3.92727e-09 -1.41804e-05 2.8759e-05 -5.63798e-05 -1.95335e-05 0.000671531 -0.00240979 0.00117483 0.011 594.251 -1.61223 
5 1 0.0298511 0.0496357 0.113928 0 0 0 1.603e-06 -2.3236e-06 -7.02587e-06 3.60353e-05 -1.30386e-05 -6.30892e-05 0.000176804 -0.00164734 0.000145222 0.011 594.452 -1.53958 
148 1 0.0510912 0.0484008 0.111519 0 0 0 2.49695e-06 -2.84498e-07 -5.53683e-06 3.32352e-05 -1.37066e-05 -2.51377e-06 0.000440441 0.00149108 -9.40817e-05 0.011 594.758 -1.50209 
122 1 0.0693587 0.0412556 0.102361 0 0 0 -8.25675e-06 -9.32284e-06 -1.50415e-05 9.2499e-05 0.000132318 6.80073e-05 -0.00168827 0.000278937 -0.00154522 0.011 593.261 -1.82437 
254 1 0.0886854 0.0446665 0.111887 0 0 0 8.70982e-06 7.98222e-08 9.57779e-06 2.64529e-05 -1.40253e-06 7.95363e-05 0.000474972 -0.00175767 0.00113961 0.011 594.68 -1.53478 
251 1 0.0105105 0.0513839 0.105021 0 0 0 3.18406e-06 1.38127e-07 -9.26306e-06 1.45511e-05 -4.48363e-06 -2.64132e-05 0.000747439 0.000888328 3.24587e-05 0.011 594.794 -1.46232 
23 1 0.0687592 0.0608118 0.111978 0 0 0 2.42646e-06 -3.25226e-06 -9.47377e-06 -7.09626e-07 1.23819e-05 2.76781e-05 0.00101139 -0.000275272 0.000287456 0.011 594.415 -1.55768 
84 1 0.0135712 0.073281 0.100602 0 0 0 4.31248e-06 -2.24816e-06 -1.2378e-06 3.33264e-05 -1.33096e-05 -3.81039e-06 -0.000195889 -0.000247671 0.000369635 0.011 594.678 -1.51424 
219 1 0.0316304 0.0712547 0.11252 0 0 0 1.74068e-06 6.32187e-07 -7.09325e-07 2.21668e-05 -4.96327e-06 -1.96386e-05 0.000119461 -0.00013326 -6.38809e-05 0.011 594.057 -1.63105 
59 1 0.050653 0.0683143 0.102672 0 0 0 1.46806e-06 -1.36734e-06 -2.86066e-06 3.55305e-05 -4.25969e-05 -7.39502e-05 -1.18006e-06 0.000183251 -0.000293473 0.011 594.447 -1.5514 
158 1 0.0876355 0.071153 0.112626 0 0 0 -4.95583e-06 1.95512e-07 -7.42369e-06 -1.6489e-05 -4.30133e-06 2.78891e-06 0.000865768 0.000940564 -0.000140191 0.011 594.405 -1.56249 
176 1 0.0106111 0.0894532 0.114739 0 0 0 3.05394e-07 -3.12956e-07 -1.02714e-06 1.03007e-06 -1.78509e-06 3.81268e-07 5.12894e-05 0.000108542 8.28324e-06 0.011 593.971 -1.6734 
128 1 0.0375948 0.0892796 0.102108 0 0 0 3.29161e-06 7.54764e-07 -6.02365e-07 1.1838e-06 -8.85061e-06 1.39104e-05 -2.4121e-05 -0.000137108 0.000262827 0.011 594.767 -1.47541 
37 1 0.0633718 0.0898718 0.105255 0 0 0 2.7951e-06 -4.00392e-06 -4.5124e-06 3.68958e-07 -1.08738e-05 -2.33429e-05 0.000299285 -0.000254959 0.000264487 0.011 594.419 -1.56309 
211 1 0.0861904 0.0895478 0.101444 0 0 0 -3.43551e-06 -2.31973e-06 -2.03022e-07 3.18818e-07 -3.01049e-05 1.84246e-05 -0.000354891 0.000164599 -0.000418271 0.011 594.437 -1.55532 
250 1 0.0102783 0.0141817 0.133063 0 0 0 2.10054e-07 1.1001e-07 -2.85097e-07 7.5897e-06 5.8e-06 -8.13962e-06 0.000525415 -0.000193698 6.08842e-05 0.011 594.401 -1.5632 
87 1 0.0293516 0.0106171 0.123273 0 0 0 2.49787e-06 2.94835e-06 -2.09421e-06 1.92527e-05 4.12564e-06 -1.60369e-05 0.000140192 -0.000305474 -0.000138032 0.011 594.396 -1.56559 
48 1 0.0483704 0.0154429 0.131905 0 0 0 -1.83413e-06 -4.64466e-07 1.90113e-07 9.09746e-06 6.8979e-07 -1.83156e-05 -7.73985e-05 -0.000239494 -0.000250986 0.011 594.454 -1.54006 
215 1 0.067251 0.0102568 0.123153 0 0 0 -3.46054e-06 -1.31524e-06 -1.93756e-06 4.36404e-05 -2.57114e-05 5.61237e-05 -9.88144e-05 0.000831307 0.000171288 0.011 594.78 -1.49003 
242 1 0.0894601 0.0110432 0.129593 0 0 0 9.76293e-06 -4.1517e-07 1.44034e-05 -2.19561e-05 -1.42354e-05 -4.00436e-05 -0.000426205 -0.000107435 3.08735e-05 0.011 594.917 -1.42914 
175 1 0.0589649 0.0291879 0.117543 0 0 0 -1.50003e-07 -2.01167e-06 -9.76498e-06 3.62087e-05 -2.1355e-05 1.07995e-05 -0.000715865 7.68221e-05 -0.000197129 0.011 594.866 -1.45356 
72 1 0.0799095 0.0263685 0.116903 0 0 0 3.09619e-06 -6.79421e-06 2.71778e-06 3.74547e-05 1.7047e-05 -4.00976e-06 -0.00109618 -0.0015068 -0.000532041 0.011 594.892 -1.44608 
82 1 0.0108144 0.0371686 0.130154 0 0 0 4.65299e-07 -1.94767e-07 1.35442e-06 1.08071e-06 1.61153e-06 2.47163e-06 1.59093e-05 -5.33495e-05 3.40319e-05 0.011 594.365 -1.5799 
227 1 0.0401918 0.0345462 0.125452 0 0 0 -1.21544e-06 -1.53901e-06 -5.48302e-06 2.2475e-05 -1.09935e-05 -2.62805e-05 -0.000139969 0.000444091 0.000384467 0.011 594.427 -1.55278 
67 1 0.0717983 0.0446657 0.125603 0 0 0 -2.33955e-06 -4.05289e-06 -1.16366e-05 -1.3316e-05 5.76175e-06 2.60116e-05 -0.000449275 -0.000613544 -4.57111e-05 0.011 594.887 -1.44236 
24 1 0.0895723 0.0350318 0.133287 0 0 0 -3.22759e-06 -1.21414e-06 -2.06931e-07 2.13914e-06 9.72302e-06 1.2502e-05 -7.48749e-05 8.54483e-05 2.51584e-05 0.011 594.927 -1.42242 
151 1 0.0511765 0.0661469 0.124505 0 0 0 5.30034e-07 -5.69386e-07 1.42238e-06 -4.54813e-07 5.0116e-06 -1.09125e-05 2.18115e-06 -0.000277257 0.00132272 0.011 594.402 -1.56364 
205 1 0.0897514 0.0571843 0.128848 0 0 0 -3.09968e-06 -4.82794e-07 -3.47678e-07 1.8979e-06 5.53266e-05 5.39884e-05 -0.00087759 0.000108584 -0.000159001 0.011 594.453 -1.5413 
66 1 0.0105903 0.0685174 0.120376 0 0 0 5.28753e-07 -4.87562e-07 -5.66895e-07 9.67921e-06 -1.57343e-06 3.37734e-07 -4.70338e-06 -6.6538e-05 -1.58221e-05 0.011 594.01 -1.65589 
154 1 0.0700194 0.0798267 0.122023 0 0 0 2.02506e-07 -2.73854e-06 -2.01289e-06 -2.17883e-05 2.10481e-05 -5.68048e-06 -0.000356542 -0.000171228 -4.46858e-05 0.011 594.407 -1.56096 
113 1 0.0279084 0.0892587 0.127593 0 0 0 5.09756e-07 -5.2565e-08 -4.01527e-07 1.17354e-06 -3.65414e-07 5.32982e-06 1.71763e-05 -0.000154329 5.133e-05 0.011 593.932 -1.69247 
57 1 0.0486656 0.0879581 0.121138 0 0 0 1.12277e-06 -3.65681e-06 -2.72951e-06 1.14126e-06 -1.67347e-05 -4.57712e-06 -0.00016333 0.000316438 -0.00039245 0.011 593.97 -1.67396 
226 1 0.0894245 0.0898455 0.122581 0 0 0 1.35061e-07 -1.12526e-06 -6.80848e-07 -1.6271e-05 2.65971e-06 1.21993e-05 3.06811e-05 -7.67363e-06 6.81028e-05 0.011 594.404 -1.56241 
115 1 0.0349101 0.00967726 0.147785 0 0 0 -6.08061e-07 -4.0704e-09 1.42346e-06 9.23248e-06 8.61252e-07 -1.74046e-05 0.00012647 0.000387896 5.92036e-05 0.011 594.413 -1.55491 
137 1 0.0807291 0.0101879 0.148469 0 0 0 2.76209e-06 2.97412e-07 5.42241e-06 4.58021e-06 2.36169e-07 -5.11658e-06 0.000343787 -0.000568984 -0.000202248 0.011 594.904 -1.43265 
134 1 0.0263024 0.026274 0.139302 0 0 0 -6.3699e-08 -4.47893e-07 1.94503e-06 8.97049e-06 2.71338e-06 -2.2668e-05 -0.000274424 1.81847e-05 -0.000178039 0.011 594.403 -1.56209 
129 1 0.0507489 0.0308357 0.146554 0 0 0 -5.31437e-07 -1.41417e-06 -2.05008e-06 -1.59226e-06 -1.86295e-06 -1.19044e-05 -0.000157968 0.000310828 -5.29914e-05 0.011 594.843 -1.45828 
75 1 0.0700301 0.0264404 0.137483 0 0 0 -1.46507e-06 -2.1411e-06 -4.57305e-06 9.0348e-07 -9.97554e-07 -1.92079e-06 0.000144811 2.1269e-05 0.000149436 0.011 594.926 -1.42217 
198 1 0.0289128 0.0475849 0.137644 0 0 0 1.14005e-07 -9.55663e-07 -1.21423e-06 7.6261e-06 2.46771e-07 -2.05366e-05 -7.26479e-05 0.000196502 2.46818e-05 0.011 594.332 -1.59264 
244 1 0.0620007 0.0485663 0.144288 0 0 0 -1.13806e-06 -2.2415e-06 -7.9128e-06 1.07912e-05 -7.399e-06 -2.36647e-06 0.000267824 0.000721607 -0.000119191 0.011 594.852 -1.45705 
135 1 0.0847497 0.0491528 0.148403 0 0 0 8.53275e-07 5.44997e-07 -3.5937e-07 -5.67355e-07 2.30404e-05 3.83273e-05 0.000147449 0.000362083 -0.000226633 0.011 594.869 -1.44901 
71 1 0.00991298 0.056703 0.137454 0 0 0 9.61687e-08 -1.75372e-07 7.769e-09 3.00248e-06 -5.50155e-07 -1.74076e-07 -9.69758e-05 2.19632e-05 -3.6687e-05 0.011 594.01 -1.6537 
10 1 0.0453633 0.0626076 0.145413 0 0 0 -5.30738e-07 -1.58472e-06 -8.19329e-07 8.46141e-06 -2.45809e-06 5.73561e-06 -2.83764e-05 -5.35097e-05 2.87137e-05 0.011 594.013 -1.65207 
17 1 0.0720911 0.0654342 0.136836 0 0 0 -1.29124e-06 -6.42069e-07 -3.23587e-06 -1.21411e-05 3.91422e-05 2.07562e-05 0.000438046 -9.0571e-06 -5.49145e-05 0.011 594.438 -1.54762 
29 1 0.0105468 0.0805238 0.137846 0 0 0 1.02573e-07 1.66088e-07 -6.73383e-07 -1.9138e-06 -2.84452e-06 3.23635e-06 -8.91513e-05 3.90469e-05 1.48937e-05 0.011 593.938 -1.68759 
132 1 0.0280524 0.0685317 0.133566 0 0 0 -1.18775e-07 -6.65045e-07 -9.67669e-07 8.67487e-06 -4.59071e-06 -4.60117e-08 4.89641e-05 5.48192e-05 -6.60257e-05 0.011 593.965 -1.67502 
170 1 0.035147 0.082278 0.148395 0 0 0 -2.82128e-07 -7.10548e-07 -1.03339e-06 5.84172e-07 3.22146e-08 2.0715e-06 4.79573e-05 0.000146517 0.000303574 0.011 593.938 -1.68945 
173 1 0.0556911 0.0812716 0.140677 0 0 0 7.4968e-07 -2.01638e-06 -1.66383e-06 6.76622e-06 -8.84022e-06 2.04363e-07 -0.000216642 -0.000149918 -0.000183089 0.011 594.359 -1.5856 
50 1 0.0799645 0.0848745 0.140414 0 0 0 2.28341e-07 -1.31596e-06 -8.32726e-07 -1.68611e-05 2.05617e-05 1.61752e-05 -3.84288e-05 3.42292e-05 8.88292e-07 0.011 594.401 -1.56459 
252 1 0.0114331 0.0115047 0.154227 0 0 0 -0.000241154 -0.000127206 -2.22552e-06 -1.60352e-06 -9.32047e-06 -7.1643e-06 -0.0133951 0.0350256 -0.450802 0.011 594.441 -1.54271 
101 1 0.048318 0.0164206 0.161937 0 0 0 4.49892e-07 2.40594e-07 -3.61855e-07 4.81882e-06 2.17855e-06 -1.191e-05 -2.60941e-05 -0.000115346 8.03843e-06 0.011 594.54 -1.50185 
171 1 0.0681592 0.0101681 0.164892 0 0 0 -5.29839e-07 1.58953e-07 1.03394e-06 4.58876e-06 1.67549e-06 -2.46445e-06 -5.54077e-05 -7.79624e-05 -4.13571e-05 0.011 594.821 -1.46688 
248 1 0.0894608 0.0287927 0.153383 0 0 0 6.65425e-07 4.37394e-07 1.86376e-06 2.64539e-06 7.93019e-06 2.60874e-07 -0.000471748 0.000163629 0.000157172 0.011 594.898 -1.43515 
136 1 0.0107576 0.0375697 0.151741 0 0 0 -2.05121e-07 1.87174e-06 5.96849e-07 -3.48024e-07 -1.51955e-07 -1.46226e-07 -0.000203585 -2.70014e-05 0.000173335 0.011 594.433 -1.54775 
193 1 0.0326592 0.037463 0.156005 0 0 0 8.13342e-07 5.58313e-07 2.31385e-07 1.15341e-05 2.21758e-07 -1.43703e-05 -1.75716e-05 -6.70817e-05 -8.03165e-05 0.011 594.499 -1.52063 
179 1 0.069077 0.0337247 0.15804 0 0 0 -3.44856e-07 -3.61946e-07 -4.42172e-06 -5.45091e-06 -6.77584e-06 -1.43473e-05 -0.0005015 -0.000289997 -7.01988e-06 0.011 594.9 -1.43388 
74 1 0.0226517 0.0610595 0.153408 0 0 0 6.3383e-07 -1.65435e-07 -4.73191e-07 5.00272e-06 -1.71185e-06 -3.91925e-06 -6.66726e-07 -8.3866e-06 -4.63384e-05 0.011 594.057 -1.63266 
197 1 0.0658658 0.0673478 0.156421 0 0 0 7.51415e-07 -2.89142e-06 -2.36918e-06 -1.38832e-05 5.00058e-06 1.2159e-05 -0.000150842 7.32315e-05 -2.57923e-05 0.011 594.367 -1.57908 
76 1 0.0871357 0.0694821 0.153392 0 0 0 2.04428e-06 -8.71673e-07 -1.03053e-06 -1.39228e-05 6.32529e-06 2.76446e-05 5.14993e-05 -0.000112936 0.000183582 0.011 594.403 -1.56359 
56 1 0.014163 0.0895892 0.156584 0 0 0 5.75291e-08 2.59503e-07 -7.40252e-07 -4.52821e-06 -1.40389e-06 3.27573e-06 6.93215e-05 -3.57523e-05 2.62108e-06 0.011 594.017 -1.65122 
65 1 0.0463631 0.0894547 0.165194 0 0 0 7.49133e-08 -1.56789e-07 -1.23345e-06 -1.70078e-06 4.69569e-07 1.57147e-06 9.84741e-05 3.6686e-05 -1.73908e-05 0.011 593.97 -1.67282 
119 1 0.0672241 0.0892549 0.157398 0 0 0 5.22423e-07 -1.02486e-06 -1.28014e-06 3.56354e-07 6.56935e-06 7.44908e-06 4.31947e-05 6.0272e-06 2.52311e-05 0.011 594.367 -1.58103 
236 1 0.0897944 0.0897934 0.158445 0 0 0 1.88455e-07 -3.83516e-07 -3.16045e-07 -1.27245e-06 1.23603e-06 1.68333e-06 -6.81804e-06 -1.27166e-05 1.85767e-05 0.011 594.36 -1.58365 
107 1 0.011531 0.0106754 0.175584 0 0 0 -1.49334e-05 -1.28103e-06 2.38614e-06 1.274e-07 8.68695e-07 -2.83727e-06 -0.000157797 0.00300104 0.00114177 0.011 594.95 -1.42012 
81 1 0.0347402 0.0105193 0.177322 0 0 0 1.73207e-06 4.46488e-07 7.66152e-07 1.87665e-06 -2.84843e-07 -6.6895e-06 4.95731e-05 0.000388124 -7.40219e-05 0.011 594.94 -1.42437 
143 1 0.0894265 0.0122009 0.16814 0 0 0 -1.98373e-07 5.55396e-07 3.1935e-06 4.08404e-06 -3.86827e-06 2.97676e-06 -0.000530483 0.000187707 -4.13938e-05 0.011 594.546 -1.51311 
31 1 0.040482 0.0312281 0.174775 0 0 0 1.15992e-07 3.24212e-07 2.56276e-07 1.15086e-06 -1.03119e-06 -6.30337e-06 2.55216e-05 3.82141e-05 2.91738e-05 0.011 594.872 -1.45294 
144 1 0.060895 0.0261745 0.176072 0 0 0 -2.03714e-07 1.68381e-06 -1.03227e-06 7.63953e-07 6.1248e-06 -9.30868e-06 -5.39883e-05 0.000163091 0.000123955 0.011 594.582 -1.49958 
131 1 0.0181097 0.0343129 0.17172 0 0 0 -5.47409e-07 1.99676e-06 4.95352e-09 2.66954e-06 -1.36068e-06 -6.18303e-06 0.000149601 9.5396e-06 -0.000235684 0.011 594.913 -1.43795 
38 1 0.0520553 0.0478704 0.182608 0 0 0 9.4024e-07 -2.21803e-08 -5.4932e-07 1.30249e-06 -3.07342e-06 -1.87304e-06 -3.93795e-05 0.00012258 -7.46449e-05 0.011 594.523 -1.5277 
55 1 0.0892417 0.0412923 0.170437 0 0 0 5.53174e-07 1.13884e-06 2.97367e-08 -6.14048e-07 2.73956e-06 1.72898e-07 0.000216734 -4.55614e-05 -4.50525e-05 0.011 594.495 -1.53923 
124 1 0.0106761 0.0599137 0.174834 0 0 0 2.24361e-07 2.65578e-08 -8.95694e-08 1.25096e-06 -2.20912e-06 -1.40858e-06 -2.38829e-05 3.57794e-06 1.93346e-06 0.011 594.718 -1.47611 