# Region type : patch inlet
# Faces  :   192
# Area   :   5.944480e-04
# Time       	sum(phi)
0.0005       	-1.249304e-05
0.001        	-1.308771e-05
0.0015       	-1.525457e-05
0.002        	-1.538029e-05
0.0025       	-1.560461e-05
0.003        	-1.575313e-05
0.0035       	-1.614592e-05
0.004        	-1.668141e-05
0.0045       	-1.721725e-05
0.005        	-1.767893e-05
0.0055       	-1.807509e-05
0.006        	-1.844200e-05
0.0065       	-1.883092e-05
0.007        	-1.928385e-05
0.0075       	-1.983746e-05
0.008        	-2.039293e-05
0.0085       	-2.097577e-05
0.009        	-2.157676e-05
0.0095       	-2.217948e-05
0.01         	-2.273738e-05
0.0105       	-2.327324e-05
0.011        	-2.383519e-05
0.0115       	-2.442796e-05
0.012        	-2.498551e-05
0.0125       	-2.551756e-05
0.013        	-2.606327e-05
0.0135       	-2.653477e-05
0.014        	-2.708657e-05
0.0145       	-2.768509e-05
0.015        	-2.813516e-05
0.0155       	-2.870441e-05
0.016        	-2.934608e-05
0.0165       	-2.985059e-05
0.017        	-3.032672e-05
0.0175       	-3.085602e-05
0.018        	-3.142289e-05
0.0185       	-3.198229e-05
0.019        	-3.245259e-05
0.0195       	-3.295694e-05
0.02         	-3.349335e-05
0.0205       	-3.407374e-05
0.021        	-3.462703e-05
0.0215       	-3.508730e-05
0.022        	-3.563235e-05
0.0225       	-3.626581e-05
0.023        	-3.678963e-05
0.0235       	-3.727683e-05
0.024        	-3.780456e-05
0.0245       	-3.841146e-05
0.025        	-3.893126e-05
0.0255       	-3.938374e-05
0.026        	-3.994087e-05
0.0265       	-4.055684e-05
0.027        	-4.111139e-05
0.0275       	-4.159665e-05
0.028        	-4.208386e-05
0.0285       	-4.270112e-05
0.029        	-4.328334e-05
0.0295       	-4.375930e-05
0.03         	-4.424538e-05
0.0305       	-4.480851e-05
0.031        	-4.542638e-05
0.0315       	-4.593161e-05
0.032        	-4.634800e-05
0.0325       	-4.697437e-05
0.033        	-4.768731e-05
0.0335       	-4.811365e-05
0.034        	-4.851643e-05
0.0345       	-4.918163e-05
0.035        	-4.980724e-05
0.0355       	-5.003677e-05
0.036        	-5.017643e-05
0.0365       	-5.126065e-05
0.037        	-5.225252e-05
0.0375       	-5.276715e-05
0.038        	-5.298028e-05
0.0385       	-5.343855e-05
0.039        	-5.403309e-05
0.0395       	-5.456317e-05
0.04         	-5.505436e-05
0.0405       	-5.561071e-05
0.041        	-5.620154e-05
0.0415       	-5.673908e-05
0.042        	-5.723783e-05
0.0425       	-5.764493e-05
0.043        	-5.824307e-05
0.0435       	-5.897443e-05
0.044        	-5.950013e-05
0.0445       	-5.982396e-05
0.045        	-6.031500e-05
0.0455       	-6.095139e-05
0.046        	-6.150956e-05
0.0465       	-6.190768e-05
0.047        	-6.245770e-05
0.0475       	-6.304357e-05
0.048        	-6.352979e-05
0.0485       	-6.391970e-05
0.049        	-6.454182e-05
0.0495       	-6.518508e-05
0.05         	-6.567655e-05
0.0505       	-6.608082e-05
0.051        	-6.675927e-05
0.0515       	-6.736386e-05
0.052        	-6.777757e-05
0.0525       	-6.811943e-05
0.053        	-6.885096e-05
0.0535       	-6.945537e-05
0.054        	-6.993151e-05
0.0545       	-7.034631e-05
0.055        	-7.100650e-05
0.0555       	-7.157873e-05
0.056        	-7.198252e-05
0.0565       	-7.222801e-05
0.057        	-7.290852e-05
0.0575       	-7.348664e-05
0.058        	-7.397424e-05
0.0585       	-7.439651e-05
0.059        	-7.496268e-05
0.0595       	-7.547469e-05
0.06         	-7.579450e-05
0.0605       	-7.592352e-05
0.061        	-7.676196e-05
0.0615       	-7.736624e-05
0.062        	-7.771086e-05
0.0625       	-7.803497e-05
0.063        	-7.836355e-05
0.0635       	-7.874173e-05
0.064        	-7.914480e-05
0.0645       	-7.956170e-05
0.065        	-7.999317e-05
0.0655       	-8.053170e-05
0.066        	-8.097296e-05
0.0665       	-8.126785e-05
0.067        	-8.219893e-05
0.0675       	-8.299900e-05
0.068        	-8.343493e-05
0.0685       	-8.361599e-05
0.069        	-8.412503e-05
0.0695       	-8.482430e-05
0.07         	-8.549083e-05
0.0705       	-8.580769e-05
0.071        	-8.634058e-05
0.0715       	-8.712830e-05
0.072        	-8.782363e-05
0.0725       	-8.810233e-05
0.073        	-8.853810e-05
0.0735       	-8.933912e-05
0.074        	-8.995836e-05
0.0745       	-9.025248e-05
0.075        	-9.039604e-05
0.0755       	-9.121855e-05
0.076        	-9.207304e-05
0.0765       	-9.252730e-05
0.077        	-9.286660e-05
0.0775       	-9.334971e-05
0.078        	-9.403802e-05
0.0785       	-9.456954e-05
0.079        	-9.512221e-05
0.0795       	-9.554931e-05
0.08         	-9.599177e-05
0.0805       	-9.672008e-05
0.081        	-9.749401e-05
0.0815       	-9.792172e-05
0.082        	-9.816339e-05
0.0825       	-9.843982e-05
0.083        	-9.946807e-05
0.0835       	-1.001942e-04
0.084        	-1.005656e-04
0.0845       	-1.009444e-04
0.085        	-1.013498e-04
0.0855       	-1.019375e-04
0.086        	-1.026982e-04
0.0865       	-1.031950e-04
0.087        	-1.038020e-04
0.0875       	-1.044823e-04
0.088        	-1.048991e-04
0.0885       	-1.053890e-04
0.089        	-1.053031e-04
0.0895       	-1.068139e-04
0.09         	-1.078401e-04
0.0905       	-1.080343e-04
0.091        	-1.081288e-04
0.0915       	-1.081557e-04
0.092        	-1.092019e-04
0.0925       	-1.101263e-04
0.093        	-1.105828e-04
0.0935       	-1.108203e-04
0.094        	-1.110258e-04
0.0945       	-1.118046e-04
0.095        	-1.127179e-04
0.0955       	-1.134180e-04
0.096        	-1.136292e-04
0.0965       	-1.132683e-04
0.097        	-1.146768e-04
0.0975       	-1.158004e-04
0.098        	-1.162710e-04
0.0985       	-1.164282e-04
0.099        	-1.167273e-04
0.0995       	-1.175149e-04
0.1          	-1.178774e-04
