thermo_log      ../DEM/post/thermo.txt

atom_style      granular
atom_modify     map array sort 0 0
communicate     single vel yes

boundary        f f f
newton          off

units           si

region          reg block 0 0.1 0 0.1 0 0.1 units box
create_box      1 reg
Created orthogonal box = (0 0 0) to (0.1 0.1 0.1)
  1 by 1 by 2 MPI processor grid

neighbor        0.003 bin
neigh_modify    delay 0 binsize 0.01


# Material properties required for granular pair styles
fix         m1 all property/global youngsModulus peratomtype 5.e6
fix         m2 all property/global poissonsRatio peratomtype 0.45
fix         m3 all property/global coefficientRestitution peratomtypepair 1 0.3
fix         m4 all property/global coefficientFriction peratomtypepair 1 0.5
#fix         m5 all property/global characteristicVelocity scalar 2.0

# pair style
pair_style  gran model hertz tangential history # hertz without cohesion
pair_coeff  * *

# timestep, gravity
timestep    0.00001
fix         gravi all gravity 9.81 vector 0.0 -1.0 0.0

# walls
fix     xwalls1 all wall/gran model hertz tangential history primitive type 1 xplane 0.0
fix     xwalls2 all wall/gran model hertz tangential history primitive type 1 xplane 0.1
fix     ywalls1 all wall/gran model hertz tangential history primitive type 1 yplane 0.0
fix     ywalls2 all wall/gran model hertz tangential history primitive type 1 yplane 0.1
fix     zwalls1 all wall/gran model hertz tangential history primitive type 1 zplane 0.0
fix     zwalls2 all wall/gran model hertz tangential history primitive type 1 zplane 0.01

# create single partciles
create_atoms    1 single 0.05 0.025  0.05 units box
Created 1 atoms
set             group all diameter 0.0001 density 3000
  1 settings made for diameter
  1 settings made for density

# cfd coupling
fix     cfd all couple/cfd couple_every 100 mpi
couple_every as specified in LIGGGHTS is overriden by calling external program (../fix_cfd_coupling.cpp:114)
fix     cfd2 all couple/cfd/force

variable    vx equal vx[1]
variable    vy equal vy[1]
variable    vz equal vz[1]
variable    time equal step*dt
fix         extra all print 100 "${time} ${vx} ${vy} ${vz}" file ../DEM/post/velocity.txt title "#" screen no

# apply nve integration to all particles that are inserted as single particles
fix         integr all nve/sphere

# screen output
compute         rke all erotate/sphere
thermo_style    custom step atoms ke c_rke vol
thermo          1000
thermo_modify   lost ignore norm no
compute_modify  thermo_temp dynamic yes
WARNING: Changing thermo_temp compute object. This object is deprecated and will be removed in the future. (../compute.cpp:161)

# insert the first particles so that dump is not empty
run     0
Setting up run at Thu Jun 11 07:22:57 2020

Memory usage per processor = 4.23785 Mbytes
    Step    Atoms         KinEng            rke         Volume 
       0        1              0              0          0.001 
Loop time of 4.222e-06 on 2 procs for 0 steps with 1 atoms, finish time Thu Jun 11 07:22:57 2020


Pair  time (%) = 0 (0)
Neigh time (%) = 0 (0)
Comm  time (%) = 0 (0)
Outpt time (%) = 0 (0)
Other time (%) = 4.222e-06 (100)

Nlocal:    0.5 ave 1 max 0 min
Histogram: 1 0 0 0 0 0 0 0 0 1
Nghost:    0.5 ave 1 max 0 min
Histogram: 1 0 0 0 0 0 0 0 0 1
Neighs:    0 ave 0 max 0 min
Histogram: 2 0 0 0 0 0 0 0 0 0

Total # of neighbors = 0
Ave neighs/atom = 0
Neighbor list builds = 0
Dangerous builds = 0
dump    dmp all custom 1000 ../DEM/post/dump.liggghts_run id type x y z ix iy iz vx vy vz fx fy fz omegax omegay omegaz radius

run     0 upto
Setting up run at Thu Jun 11 07:22:57 2020

Memory usage per processor = 4.23805 Mbytes
    Step    Atoms         KinEng            rke         Volume 
       0        1              0              0          0.001 
Loop time of 1.779e-06 on 2 procs for 0 steps with 1 atoms, finish time Thu Jun 11 07:22:57 2020


Pair  time (%) = 0 (0)
Neigh time (%) = 0 (0)
Comm  time (%) = 0 (0)
Outpt time (%) = 0 (0)
Other time (%) = 1.779e-06 (100)

Nlocal:    0.5 ave 1 max 0 min
Histogram: 1 0 0 0 0 0 0 0 0 1
Nghost:    0.5 ave 1 max 0 min
Histogram: 1 0 0 0 0 0 0 0 0 1
Neighs:    0 ave 0 max 0 min
Histogram: 2 0 0 0 0 0 0 0 0 0

Total # of neighbors = 0
Ave neighs/atom = 0
Neighbor list builds = 0
Dangerous builds = 0
run 100    
Setting up run at Thu Jun 11 07:22:57 2020

Memory usage per processor = 4.23805 Mbytes
    Step    Atoms         KinEng            rke         Volume 
       0        1              0              0          0.001 
CFD Coupling established at step 100
     100        1  7.5583656e-14              0          0.001 
Loop time of 0.000546639 on 2 procs for 100 steps with 1 atoms, finish time Thu Jun 11 07:22:57 2020


Pair  time (%) = 4.8032e-05 (8.78678)
Neigh time (%) = 0 (0)
Comm  time (%) = 9.36435e-05 (17.1308)
Outpt time (%) = 2.2889e-05 (4.18722)
Other time (%) = 0.000382075 (69.8952)

Nlocal:    0.5 ave 1 max 0 min
Histogram: 1 0 0 0 0 0 0 0 0 1
Nghost:    0.5 ave 1 max 0 min
Histogram: 1 0 0 0 0 0 0 0 0 1
Neighs:    0 ave 0 max 0 min
Histogram: 2 0 0 0 0 0 0 0 0 0

Total # of neighbors = 0
Ave neighs/atom = 0
Neighbor list builds = 0
Dangerous builds = 0
run 100    
Setting up run at Thu Jun 11 07:22:57 2020

Memory usage per processor = 4.23805 Mbytes
    Step    Atoms         KinEng            rke         Volume 
     100        1  7.5583656e-14              0          0.001 
CFD Coupling established at step 200
     200        1  2.8277673e-13              0          0.001 
Loop time of 0.000263251 on 2 procs for 100 steps with 1 atoms, finish time Thu Jun 11 07:22:57 2020


Pair  time (%) = 2.2954e-05 (8.71942)
Neigh time (%) = 0 (0)
Comm  time (%) = 4.9071e-05 (18.6404)
Outpt time (%) = 1.2925e-05 (4.90975)
Other time (%) = 0.000178301 (67.7305)

Nlocal:    0.5 ave 1 max 0 min
Histogram: 1 0 0 0 0 0 0 0 0 1
Nghost:    0.5 ave 1 max 0 min
Histogram: 1 0 0 0 0 0 0 0 0 1
Neighs:    0 ave 0 max 0 min
Histogram: 2 0 0 0 0 0 0 0 0 0

Total # of neighbors = 0
Ave neighs/atom = 0
Neighbor list builds = 0
Dangerous builds = 0
run 100    
Setting up run at Thu Jun 11 07:22:57 2020

Memory usage per processor = 4.23805 Mbytes
    Step    Atoms         KinEng            rke         Volume 
     200        1  2.8277673e-13              0          0.001 
CFD Coupling established at step 300
     300        1  5.9528693e-13              0          0.001 
Loop time of 0.000259344 on 2 procs for 100 steps with 1 atoms, finish time Thu Jun 11 07:22:57 2020


Pair  time (%) = 2.20645e-05 (8.50781)
Neigh time (%) = 0 (0)
Comm  time (%) = 4.81125e-05 (18.5516)
Outpt time (%) = 1.23205e-05 (4.75064)
Other time (%) = 0.000176846 (68.1899)

Nlocal:    0.5 ave 1 max 0 min
Histogram: 1 0 0 0 0 0 0 0 0 1
Nghost:    0.5 ave 1 max 0 min
Histogram: 1 0 0 0 0 0 0 0 0 1
Neighs:    0 ave 0 max 0 min
Histogram: 2 0 0 0 0 0 0 0 0 0

Total # of neighbors = 0
Ave neighs/atom = 0
Neighbor list builds = 0
Dangerous builds = 0
run 100    
Setting up run at Thu Jun 11 07:22:57 2020

Memory usage per processor = 4.23805 Mbytes
    Step    Atoms         KinEng            rke         Volume 
     300        1  5.9528693e-13              0          0.001 
CFD Coupling established at step 400
     400        1  9.8632268e-13              0          0.001 
Loop time of 0.000257566 on 2 procs for 100 steps with 1 atoms, finish time Thu Jun 11 07:22:57 2020


Pair  time (%) = 2.46515e-05 (9.57093)
Neigh time (%) = 0 (0)
Comm  time (%) = 4.7593e-05 (18.4779)
Outpt time (%) = 1.1761e-05 (4.5662)
Other time (%) = 0.000173561 (67.3849)

Nlocal:    0.5 ave 1 max 0 min
Histogram: 1 0 0 0 0 0 0 0 0 1
Nghost:    0.5 ave 1 max 0 min
Histogram: 1 0 0 0 0 0 0 0 0 1
Neighs:    0 ave 0 max 0 min
Histogram: 2 0 0 0 0 0 0 0 0 0

Total # of neighbors = 0
Ave neighs/atom = 0
Neighbor list builds = 0
Dangerous builds = 0
run 100    
Setting up run at Thu Jun 11 07:22:57 2020

Memory usage per processor = 4.23805 Mbytes
    Step    Atoms         KinEng            rke         Volume 
     400        1  9.8632268e-13              0          0.001 
CFD Coupling established at step 500
     500        1  1.4402951e-12              0          0.001 
Loop time of 0.000260044 on 2 procs for 100 steps with 1 atoms, finish time Thu Jun 11 07:22:57 2020


Pair  time (%) = 2.29535e-05 (8.82679)
Neigh time (%) = 0 (0)
Comm  time (%) = 4.9726e-05 (19.1222)
Outpt time (%) = 1.1901e-05 (4.57654)
Other time (%) = 0.000175463 (67.4745)

Nlocal:    0.5 ave 1 max 0 min
Histogram: 1 0 0 0 0 0 0 0 0 1
Nghost:    0.5 ave 1 max 0 min
Histogram: 1 0 0 0 0 0 0 0 0 1
Neighs:    0 ave 0 max 0 min
Histogram: 2 0 0 0 0 0 0 0 0 0

Total # of neighbors = 0
Ave neighs/atom = 0
Neighbor list builds = 0
Dangerous builds = 0
run 100    
Setting up run at Thu Jun 11 07:22:57 2020

Memory usage per processor = 4.23805 Mbytes
    Step    Atoms         KinEng            rke         Volume 
     500        1  1.4402951e-12              0          0.001 
CFD Coupling established at step 600
     600        1  1.9384651e-12              0          0.001 
Loop time of 0.000253178 on 2 procs for 100 steps with 1 atoms, finish time Thu Jun 11 07:22:57 2020


Pair  time (%) = 2.27545e-05 (8.98753)
Neigh time (%) = 0 (0)
Comm  time (%) = 4.68985e-05 (18.5239)
Outpt time (%) = 1.16085e-05 (4.5851)
Other time (%) = 0.000171917 (67.9035)

Nlocal:    0.5 ave 1 max 0 min
Histogram: 1 0 0 0 0 0 0 0 0 1
Nghost:    0.5 ave 1 max 0 min
Histogram: 1 0 0 0 0 0 0 0 0 1
Neighs:    0 ave 0 max 0 min
Histogram: 2 0 0 0 0 0 0 0 0 0

Total # of neighbors = 0
Ave neighs/atom = 0
Neighbor list builds = 0
Dangerous builds = 0
run 100    
Setting up run at Thu Jun 11 07:22:57 2020

Memory usage per processor = 4.23805 Mbytes
    Step    Atoms         KinEng            rke         Volume 
     600        1  1.9384651e-12              0          0.001 
CFD Coupling established at step 700
     700        1  2.4659524e-12              0          0.001 
Loop time of 0.000252812 on 2 procs for 100 steps with 1 atoms, finish time Thu Jun 11 07:22:57 2020


Pair  time (%) = 2.40875e-05 (9.52785)
Neigh time (%) = 0 (0)
Comm  time (%) = 4.7912e-05 (18.9517)
Outpt time (%) = 1.13335e-05 (4.48298)
Other time (%) = 0.000169479 (67.0375)

Nlocal:    0.5 ave 1 max 0 min
Histogram: 1 0 0 0 0 0 0 0 0 1
Nghost:    0.5 ave 1 max 0 min
Histogram: 1 0 0 0 0 0 0 0 0 1
Neighs:    0 ave 0 max 0 min
Histogram: 2 0 0 0 0 0 0 0 0 0

Total # of neighbors = 0
Ave neighs/atom = 0
Neighbor list builds = 0
Dangerous builds = 0
run 100    
Setting up run at Thu Jun 11 07:22:57 2020

Memory usage per processor = 4.23805 Mbytes
    Step    Atoms         KinEng            rke         Volume 
     700        1  2.4659524e-12              0          0.001 
CFD Coupling established at step 800
     800        1  3.0104269e-12              0          0.001 
Loop time of 0.000251887 on 2 procs for 100 steps with 1 atoms, finish time Thu Jun 11 07:22:57 2020


Pair  time (%) = 2.21215e-05 (8.78231)
Neigh time (%) = 0 (0)
Comm  time (%) = 4.6612e-05 (18.5051)
Outpt time (%) = 1.1487e-05 (4.56038)
Other time (%) = 0.000171666 (68.1522)

Nlocal:    0.5 ave 1 max 0 min
Histogram: 1 0 0 0 0 0 0 0 0 1
Nghost:    0.5 ave 1 max 0 min
Histogram: 1 0 0 0 0 0 0 0 0 1
Neighs:    0 ave 0 max 0 min
Histogram: 2 0 0 0 0 0 0 0 0 0

Total # of neighbors = 0
Ave neighs/atom = 0
Neighbor list builds = 0
Dangerous builds = 0
run 100    
Setting up run at Thu Jun 11 07:22:57 2020

Memory usage per processor = 4.23805 Mbytes
    Step    Atoms         KinEng            rke         Volume 
     800        1  3.0104269e-12              0          0.001 
CFD Coupling established at step 900
     900        1  3.5617774e-12              0          0.001 
Loop time of 0.000249959 on 2 procs for 100 steps with 1 atoms, finish time Thu Jun 11 07:22:57 2020


Pair  time (%) = 2.2995e-05 (9.19953)
Neigh time (%) = 0 (0)
Comm  time (%) = 4.7395e-05 (18.9611)
Outpt time (%) = 1.10515e-05 (4.42133)
Other time (%) = 0.000168517 (67.418)

Nlocal:    0.5 ave 1 max 0 min
Histogram: 1 0 0 0 0 0 0 0 0 1
Nghost:    0.5 ave 1 max 0 min
Histogram: 1 0 0 0 0 0 0 0 0 1
Neighs:    0 ave 0 max 0 min
Histogram: 2 0 0 0 0 0 0 0 0 0

Total # of neighbors = 0
Ave neighs/atom = 0
Neighbor list builds = 0
Dangerous builds = 0
run 100    
Setting up run at Thu Jun 11 07:22:57 2020

Memory usage per processor = 4.23805 Mbytes
    Step    Atoms         KinEng            rke         Volume 
     900        1  3.5617774e-12              0          0.001 
CFD Coupling established at step 1000
    1000        1  4.1118203e-12              0          0.001 
Loop time of 0.000270145 on 2 procs for 100 steps with 1 atoms, finish time Thu Jun 11 07:22:57 2020


Pair  time (%) = 2.29475e-05 (8.49451)
Neigh time (%) = 0 (0)
Comm  time (%) = 4.8786e-05 (18.0592)
Outpt time (%) = 2.8063e-05 (10.3881)
Other time (%) = 0.000170348 (63.0582)

Nlocal:    0.5 ave 1 max 0 min
Histogram: 1 0 0 0 0 0 0 0 0 1
Nghost:    0.5 ave 1 max 0 min
Histogram: 1 0 0 0 0 0 0 0 0 1
Neighs:    0 ave 0 max 0 min
Histogram: 2 0 0 0 0 0 0 0 0 0

Total # of neighbors = 0
Ave neighs/atom = 0
Neighbor list builds = 0
Dangerous builds = 0
write_restart ../DEM/post/restart/liggghts.restartCFDEM
run 100    
Setting up run at Thu Jun 11 07:22:57 2020

Memory usage per processor = 4.23811 Mbytes
    Step    Atoms         KinEng            rke         Volume 
    1000        1  4.1118203e-12              0          0.001 
CFD Coupling established at step 1100
    1100        1  4.6540549e-12              0          0.001 
Loop time of 0.000256356 on 2 procs for 100 steps with 1 atoms, finish time Thu Jun 11 07:22:57 2020


Pair  time (%) = 2.4161e-05 (9.42478)
Neigh time (%) = 0 (0)
Comm  time (%) = 4.71925e-05 (18.409)
Outpt time (%) = 1.11925e-05 (4.366)
Other time (%) = 0.00017381 (67.8002)

Nlocal:    0.5 ave 1 max 0 min
Histogram: 1 0 0 0 0 0 0 0 0 1
Nghost:    0.5 ave 1 max 0 min
Histogram: 1 0 0 0 0 0 0 0 0 1
Neighs:    0 ave 0 max 0 min
Histogram: 2 0 0 0 0 0 0 0 0 0

Total # of neighbors = 0
Ave neighs/atom = 0
Neighbor list builds = 0
Dangerous builds = 0
write_restart ../DEM/post/restart/liggghts.restartCFDEM
run 100    
Setting up run at Thu Jun 11 07:22:57 2020

Memory usage per processor = 4.23811 Mbytes
    Step    Atoms         KinEng            rke         Volume 
    1100        1  4.6540549e-12              0          0.001 
CFD Coupling established at step 1200
    1200        1   5.183399e-12              0          0.001 
Loop time of 0.00024623 on 2 procs for 100 steps with 1 atoms, finish time Thu Jun 11 07:22:57 2020


Pair  time (%) = 2.40015e-05 (9.74761)
Neigh time (%) = 0 (0)
Comm  time (%) = 4.5654e-05 (18.5412)
Outpt time (%) = 1.1034e-05 (4.48119)
Other time (%) = 0.00016554 (67.23)

Nlocal:    0.5 ave 1 max 0 min
Histogram: 1 0 0 0 0 0 0 0 0 1
Nghost:    0.5 ave 1 max 0 min
Histogram: 1 0 0 0 0 0 0 0 0 1
Neighs:    0 ave 0 max 0 min
Histogram: 2 0 0 0 0 0 0 0 0 0

Total # of neighbors = 0
Ave neighs/atom = 0
Neighbor list builds = 0
Dangerous builds = 0
write_restart ../DEM/post/restart/liggghts.restartCFDEM
run 100    
Setting up run at Thu Jun 11 07:22:57 2020

Memory usage per processor = 4.23811 Mbytes
    Step    Atoms         KinEng            rke         Volume 
    1200        1   5.183399e-12              0          0.001 
CFD Coupling established at step 1300
    1300        1  5.6959465e-12              0          0.001 
Loop time of 0.000247195 on 2 procs for 100 steps with 1 atoms, finish time Thu Jun 11 07:22:57 2020


Pair  time (%) = 2.29945e-05 (9.30215)
Neigh time (%) = 0 (0)
Comm  time (%) = 4.6049e-05 (18.6286)
Outpt time (%) = 1.10415e-05 (4.46671)
Other time (%) = 0.00016711 (67.6026)

Nlocal:    0.5 ave 1 max 0 min
Histogram: 1 0 0 0 0 0 0 0 0 1
Nghost:    0.5 ave 1 max 0 min
Histogram: 1 0 0 0 0 0 0 0 0 1
Neighs:    0 ave 0 max 0 min
Histogram: 2 0 0 0 0 0 0 0 0 0

Total # of neighbors = 0
Ave neighs/atom = 0
Neighbor list builds = 0
Dangerous builds = 0
write_restart ../DEM/post/restart/liggghts.restartCFDEM
run 100    
Setting up run at Thu Jun 11 07:22:57 2020

Memory usage per processor = 4.23811 Mbytes
    Step    Atoms         KinEng            rke         Volume 
    1300        1  5.6959465e-12              0          0.001 
CFD Coupling established at step 1400
    1400        1  6.1884213e-12              0          0.001 
Loop time of 0.000249242 on 2 procs for 100 steps with 1 atoms, finish time Thu Jun 11 07:22:57 2020


Pair  time (%) = 2.19225e-05 (8.79567)
Neigh time (%) = 0 (0)
Comm  time (%) = 4.63185e-05 (18.5837)
Outpt time (%) = 1.07445e-05 (4.31087)
Other time (%) = 0.000170256 (68.3097)

Nlocal:    0.5 ave 1 max 0 min
Histogram: 1 0 0 0 0 0 0 0 0 1
Nghost:    0.5 ave 1 max 0 min
Histogram: 1 0 0 0 0 0 0 0 0 1
Neighs:    0 ave 0 max 0 min
Histogram: 2 0 0 0 0 0 0 0 0 0

Total # of neighbors = 0
Ave neighs/atom = 0
Neighbor list builds = 0
Dangerous builds = 0
write_restart ../DEM/post/restart/liggghts.restartCFDEM
run 100    
Setting up run at Thu Jun 11 07:22:57 2020

Memory usage per processor = 4.23811 Mbytes
    Step    Atoms         KinEng            rke         Volume 
    1400        1  6.1884213e-12              0          0.001 
CFD Coupling established at step 1500
    1500        1  6.6598297e-12              0          0.001 
Loop time of 0.00024912 on 2 procs for 100 steps with 1 atoms, finish time Thu Jun 11 07:22:57 2020


Pair  time (%) = 2.31355e-05 (9.28691)
Neigh time (%) = 0 (0)
Comm  time (%) = 4.6008e-05 (18.4682)
Outpt time (%) = 1.08935e-05 (4.3728)
Other time (%) = 0.000169082 (67.872)

Nlocal:    0.5 ave 1 max 0 min
Histogram: 1 0 0 0 0 0 0 0 0 1
Nghost:    0.5 ave 1 max 0 min
Histogram: 1 0 0 0 0 0 0 0 0 1
Neighs:    0 ave 0 max 0 min
Histogram: 2 0 0 0 0 0 0 0 0 0

Total # of neighbors = 0
Ave neighs/atom = 0
Neighbor list builds = 0
Dangerous builds = 0
write_restart ../DEM/post/restart/liggghts.restartCFDEM
run 100    
Setting up run at Thu Jun 11 07:22:57 2020

Memory usage per processor = 4.23811 Mbytes
    Step    Atoms         KinEng            rke         Volume 
    1500        1  6.6598297e-12              0          0.001 
CFD Coupling established at step 1600
    1600        1  7.1082809e-12              0          0.001 
Loop time of 0.000247089 on 2 procs for 100 steps with 1 atoms, finish time Thu Jun 11 07:22:57 2020


Pair  time (%) = 2.3046e-05 (9.32698)
Neigh time (%) = 0 (0)
Comm  time (%) = 4.4554e-05 (18.0315)
Outpt time (%) = 1.07955e-05 (4.36906)
Other time (%) = 0.000168694 (68.2724)

Nlocal:    0.5 ave 1 max 0 min
Histogram: 1 0 0 0 0 0 0 0 0 1
Nghost:    0.5 ave 1 max 0 min
Histogram: 1 0 0 0 0 0 0 0 0 1
Neighs:    0 ave 0 max 0 min
Histogram: 2 0 0 0 0 0 0 0 0 0

Total # of neighbors = 0
Ave neighs/atom = 0
Neighbor list builds = 0
Dangerous builds = 0
write_restart ../DEM/post/restart/liggghts.restartCFDEM
run 100    
Setting up run at Thu Jun 11 07:22:57 2020

Memory usage per processor = 4.23811 Mbytes
    Step    Atoms         KinEng            rke         Volume 
    1600        1  7.1082809e-12              0          0.001 
CFD Coupling established at step 1700
    1700        1  7.5334986e-12              0          0.001 
Loop time of 0.000244947 on 2 procs for 100 steps with 1 atoms, finish time Thu Jun 11 07:22:57 2020


Pair  time (%) = 2.20325e-05 (8.99482)
Neigh time (%) = 0 (0)
Comm  time (%) = 4.5119e-05 (18.4199)
Outpt time (%) = 1.05345e-05 (4.30074)
Other time (%) = 0.00016726 (68.2845)

Nlocal:    0.5 ave 1 max 0 min
Histogram: 1 0 0 0 0 0 0 0 0 1
Nghost:    0.5 ave 1 max 0 min
Histogram: 1 0 0 0 0 0 0 0 0 1
Neighs:    0 ave 0 max 0 min
Histogram: 2 0 0 0 0 0 0 0 0 0

Total # of neighbors = 0
Ave neighs/atom = 0
Neighbor list builds = 0
Dangerous builds = 0
write_restart ../DEM/post/restart/liggghts.restartCFDEM
run 100    
Setting up run at Thu Jun 11 07:22:57 2020

Memory usage per processor = 4.23811 Mbytes
    Step    Atoms         KinEng            rke         Volume 
    1700        1  7.5334986e-12              0          0.001 
CFD Coupling established at step 1800
    1800        1  7.9349478e-12              0          0.001 
Loop time of 0.000242935 on 2 procs for 100 steps with 1 atoms, finish time Thu Jun 11 07:22:57 2020


Pair  time (%) = 2.27955e-05 (9.38336)
Neigh time (%) = 0 (0)
Comm  time (%) = 4.4857e-05 (18.4646)
Outpt time (%) = 1.04635e-05 (4.30711)
Other time (%) = 0.000164819 (67.845)

Nlocal:    0.5 ave 1 max 0 min
Histogram: 1 0 0 0 0 0 0 0 0 1
Nghost:    0.5 ave 1 max 0 min
Histogram: 1 0 0 0 0 0 0 0 0 1
Neighs:    0 ave 0 max 0 min
Histogram: 2 0 0 0 0 0 0 0 0 0

Total # of neighbors = 0
Ave neighs/atom = 0
Neighbor list builds = 0
Dangerous builds = 0
write_restart ../DEM/post/restart/liggghts.restartCFDEM
run 100    
Setting up run at Thu Jun 11 07:22:57 2020

Memory usage per processor = 4.23811 Mbytes
    Step    Atoms         KinEng            rke         Volume 
    1800        1  7.9349478e-12              0          0.001 
CFD Coupling established at step 1900
    1900        1  8.3128741e-12              0          0.001 
Loop time of 0.000244583 on 2 procs for 100 steps with 1 atoms, finish time Thu Jun 11 07:22:57 2020


Pair  time (%) = 2.2841e-05 (9.33875)
Neigh time (%) = 0 (0)
Comm  time (%) = 4.463e-05 (18.2474)
Outpt time (%) = 1.0791e-05 (4.412)
Other time (%) = 0.000166321 (68.0019)

Nlocal:    0.5 ave 1 max 0 min
Histogram: 1 0 0 0 0 0 0 0 0 1
Nghost:    0.5 ave 1 max 0 min
Histogram: 1 0 0 0 0 0 0 0 0 1
Neighs:    0 ave 0 max 0 min
Histogram: 2 0 0 0 0 0 0 0 0 0

Total # of neighbors = 0
Ave neighs/atom = 0
Neighbor list builds = 0
Dangerous builds = 0
write_restart ../DEM/post/restart/liggghts.restartCFDEM
run 100    
Setting up run at Thu Jun 11 07:22:57 2020

Memory usage per processor = 4.23811 Mbytes
    Step    Atoms         KinEng            rke         Volume 
    1900        1  8.3128741e-12              0          0.001 
CFD Coupling established at step 2000
    2000        1  8.6675814e-12              0          0.001 
Loop time of 0.000258697 on 2 procs for 100 steps with 1 atoms, finish time Thu Jun 11 07:22:57 2020


Pair  time (%) = 2.1943e-05 (8.48212)
Neigh time (%) = 0 (0)
Comm  time (%) = 4.50005e-05 (17.3951)
Outpt time (%) = 2.5545e-05 (9.87449)
Other time (%) = 0.000166208 (64.2483)

Nlocal:    0.5 ave 1 max 0 min
Histogram: 1 0 0 0 0 0 0 0 0 1
Nghost:    0.5 ave 1 max 0 min
Histogram: 1 0 0 0 0 0 0 0 0 1
Neighs:    0 ave 0 max 0 min
Histogram: 2 0 0 0 0 0 0 0 0 0

Total # of neighbors = 0
Ave neighs/atom = 0
Neighbor list builds = 0
Dangerous builds = 0
write_restart ../DEM/post/restart/liggghts.restartCFDEM
run 100    
Setting up run at Thu Jun 11 07:22:57 2020

Memory usage per processor = 4.23812 Mbytes
    Step    Atoms         KinEng            rke         Volume 
    2000        1  8.6675814e-12              0          0.001 
CFD Coupling established at step 2100
    2100        1  8.9997006e-12              0          0.001 
Loop time of 0.000248339 on 2 procs for 100 steps with 1 atoms, finish time Thu Jun 11 07:22:57 2020


Pair  time (%) = 2.45205e-05 (9.8738)
Neigh time (%) = 0 (0)
Comm  time (%) = 4.59505e-05 (18.5031)
Outpt time (%) = 9.24e-06 (3.72072)
Other time (%) = 0.000168628 (67.9023)

Nlocal:    0.5 ave 1 max 0 min
Histogram: 1 0 0 0 0 0 0 0 0 1
Nghost:    0.5 ave 1 max 0 min
Histogram: 1 0 0 0 0 0 0 0 0 1
Neighs:    0 ave 0 max 0 min
Histogram: 2 0 0 0 0 0 0 0 0 0

Total # of neighbors = 0
Ave neighs/atom = 0
Neighbor list builds = 0
Dangerous builds = 0
write_restart ../DEM/post/restart/liggghts.restartCFDEM
run 100    
Setting up run at Thu Jun 11 07:22:57 2020

Memory usage per processor = 4.23812 Mbytes
    Step    Atoms         KinEng            rke         Volume 
    2100        1  8.9997006e-12              0          0.001 
CFD Coupling established at step 2200
    2200        1  9.3099624e-12              0          0.001 
Loop time of 0.000244322 on 2 procs for 100 steps with 1 atoms, finish time Thu Jun 11 07:22:57 2020


Pair  time (%) = 2.37815e-05 (9.73365)
Neigh time (%) = 0 (0)
Comm  time (%) = 4.5776e-05 (18.7359)
Outpt time (%) = 1.07565e-05 (4.40258)
Other time (%) = 0.000164009 (67.1279)

Nlocal:    0.5 ave 1 max 0 min
Histogram: 1 0 0 0 0 0 0 0 0 1
Nghost:    0.5 ave 1 max 0 min
Histogram: 1 0 0 0 0 0 0 0 0 1
Neighs:    0 ave 0 max 0 min
Histogram: 2 0 0 0 0 0 0 0 0 0

Total # of neighbors = 0
Ave neighs/atom = 0
Neighbor list builds = 0
Dangerous builds = 0
write_restart ../DEM/post/restart/liggghts.restartCFDEM
run 100    
Setting up run at Thu Jun 11 07:22:57 2020

Memory usage per processor = 4.23812 Mbytes
    Step    Atoms         KinEng            rke         Volume 
    2200        1  9.3099624e-12              0          0.001 
CFD Coupling established at step 2300
    2300        1   9.599249e-12              0          0.001 
Loop time of 0.000243568 on 2 procs for 100 steps with 1 atoms, finish time Thu Jun 11 07:22:57 2020


Pair  time (%) = 2.31185e-05 (9.4916)
Neigh time (%) = 0 (0)
Comm  time (%) = 4.5936e-05 (18.8596)
Outpt time (%) = 1.0722e-05 (4.40206)
Other time (%) = 0.000163791 (67.2467)

Nlocal:    0.5 ave 1 max 0 min
Histogram: 1 0 0 0 0 0 0 0 0 1
Nghost:    0.5 ave 1 max 0 min
Histogram: 1 0 0 0 0 0 0 0 0 1
Neighs:    0 ave 0 max 0 min
Histogram: 2 0 0 0 0 0 0 0 0 0

Total # of neighbors = 0
Ave neighs/atom = 0
Neighbor list builds = 0
Dangerous builds = 0
write_restart ../DEM/post/restart/liggghts.restartCFDEM
run 100    
Setting up run at Thu Jun 11 07:22:57 2020

Memory usage per processor = 4.23812 Mbytes
    Step    Atoms         KinEng            rke         Volume 
    2300        1   9.599249e-12              0          0.001 
CFD Coupling established at step 2400
    2400        1  9.8685001e-12              0          0.001 
Loop time of 0.000245759 on 2 procs for 100 steps with 1 atoms, finish time Thu Jun 11 07:22:57 2020


Pair  time (%) = 2.4564e-05 (9.99516)
Neigh time (%) = 0 (0)
Comm  time (%) = 4.67395e-05 (19.0184)
Outpt time (%) = 1.03935e-05 (4.22914)
Other time (%) = 0.000164062 (66.7573)

Nlocal:    0.5 ave 1 max 0 min
Histogram: 1 0 0 0 0 0 0 0 0 1
Nghost:    0.5 ave 1 max 0 min
Histogram: 1 0 0 0 0 0 0 0 0 1
Neighs:    0 ave 0 max 0 min
Histogram: 2 0 0 0 0 0 0 0 0 0

Total # of neighbors = 0
Ave neighs/atom = 0
Neighbor list builds = 0
Dangerous builds = 0
write_restart ../DEM/post/restart/liggghts.restartCFDEM
run 100    
Setting up run at Thu Jun 11 07:22:57 2020

Memory usage per processor = 4.23812 Mbytes
    Step    Atoms         KinEng            rke         Volume 
    2400        1  9.8685001e-12              0          0.001 
CFD Coupling established at step 2500
    2500        1  1.0118827e-11              0          0.001 
Loop time of 0.000244681 on 2 procs for 100 steps with 1 atoms, finish time Thu Jun 11 07:22:57 2020


Pair  time (%) = 2.3995e-05 (9.80667)
Neigh time (%) = 0 (0)
Comm  time (%) = 4.58785e-05 (18.7504)
Outpt time (%) = 1.0843e-05 (4.43149)
Other time (%) = 0.000163964 (67.0115)

Nlocal:    0.5 ave 1 max 0 min
Histogram: 1 0 0 0 0 0 0 0 0 1
Nghost:    0.5 ave 1 max 0 min
Histogram: 1 0 0 0 0 0 0 0 0 1
Neighs:    0 ave 0 max 0 min
Histogram: 2 0 0 0 0 0 0 0 0 0

Total # of neighbors = 0
Ave neighs/atom = 0
Neighbor list builds = 0
Dangerous builds = 0
write_restart ../DEM/post/restart/liggghts.restartCFDEM
run 100    
Setting up run at Thu Jun 11 07:22:57 2020

Memory usage per processor = 4.23812 Mbytes
    Step    Atoms         KinEng            rke         Volume 
    2500        1  1.0118827e-11              0          0.001 
CFD Coupling established at step 2600
    2600        1  1.0351102e-11              0          0.001 
Loop time of 0.00024904 on 2 procs for 100 steps with 1 atoms, finish time Thu Jun 11 07:22:57 2020


Pair  time (%) = 2.3094e-05 (9.27319)
Neigh time (%) = 0 (0)
Comm  time (%) = 4.57915e-05 (18.3872)
Outpt time (%) = 1.09075e-05 (4.37981)
Other time (%) = 0.000169247 (67.9598)

Nlocal:    0.5 ave 1 max 0 min
Histogram: 1 0 0 0 0 0 0 0 0 1
Nghost:    0.5 ave 1 max 0 min
Histogram: 1 0 0 0 0 0 0 0 0 1
Neighs:    0 ave 0 max 0 min
Histogram: 2 0 0 0 0 0 0 0 0 0

Total # of neighbors = 0
Ave neighs/atom = 0
Neighbor list builds = 0
Dangerous builds = 0
write_restart ../DEM/post/restart/liggghts.restartCFDEM
run 100    
Setting up run at Thu Jun 11 07:22:57 2020

Memory usage per processor = 4.23812 Mbytes
    Step    Atoms         KinEng            rke         Volume 
    2600        1  1.0351102e-11              0          0.001 
CFD Coupling established at step 2700
    2700        1  1.0566496e-11              0          0.001 
Loop time of 0.000246633 on 2 procs for 100 steps with 1 atoms, finish time Thu Jun 11 07:22:57 2020


Pair  time (%) = 2.38785e-05 (9.68178)
Neigh time (%) = 0 (0)
Comm  time (%) = 4.5153e-05 (18.3077)
Outpt time (%) = 1.0605e-05 (4.2999)
Other time (%) = 0.000166997 (67.7106)

Nlocal:    0.5 ave 1 max 0 min
Histogram: 1 0 0 0 0 0 0 0 0 1
Nghost:    0.5 ave 1 max 0 min
Histogram: 1 0 0 0 0 0 0 0 0 1
Neighs:    0 ave 0 max 0 min
Histogram: 2 0 0 0 0 0 0 0 0 0

Total # of neighbors = 0
Ave neighs/atom = 0
Neighbor list builds = 0
Dangerous builds = 0
write_restart ../DEM/post/restart/liggghts.restartCFDEM
run 100    
Setting up run at Thu Jun 11 07:22:57 2020

Memory usage per processor = 4.23812 Mbytes
    Step    Atoms         KinEng            rke         Volume 
    2700        1  1.0566496e-11              0          0.001 
CFD Coupling established at step 2800
    2800        1  1.0765909e-11              0          0.001 
Loop time of 0.000244019 on 2 procs for 100 steps with 1 atoms, finish time Thu Jun 11 07:22:57 2020


Pair  time (%) = 2.2945e-05 (9.40296)
Neigh time (%) = 0 (0)
Comm  time (%) = 4.46555e-05 (18.3)
Outpt time (%) = 1.0788e-05 (4.42097)
Other time (%) = 0.000165631 (67.8761)

Nlocal:    0.5 ave 1 max 0 min
Histogram: 1 0 0 0 0 0 0 0 0 1
Nghost:    0.5 ave 1 max 0 min
Histogram: 1 0 0 0 0 0 0 0 0 1
Neighs:    0 ave 0 max 0 min
Histogram: 2 0 0 0 0 0 0 0 0 0

Total # of neighbors = 0
Ave neighs/atom = 0
Neighbor list builds = 0
Dangerous builds = 0
write_restart ../DEM/post/restart/liggghts.restartCFDEM
run 100    
Setting up run at Thu Jun 11 07:22:57 2020

Memory usage per processor = 4.23812 Mbytes
    Step    Atoms         KinEng            rke         Volume 
    2800        1  1.0765909e-11              0          0.001 
CFD Coupling established at step 2900
    2900        1  1.0950441e-11              0          0.001 
Loop time of 0.000243203 on 2 procs for 100 steps with 1 atoms, finish time Thu Jun 11 07:22:57 2020


Pair  time (%) = 2.19875e-05 (9.04082)
Neigh time (%) = 0 (0)
Comm  time (%) = 4.45845e-05 (18.3323)
Outpt time (%) = 1.0444e-05 (4.29436)
Other time (%) = 0.000166187 (68.3326)

Nlocal:    0.5 ave 1 max 0 min
Histogram: 1 0 0 0 0 0 0 0 0 1
Nghost:    0.5 ave 1 max 0 min
Histogram: 1 0 0 0 0 0 0 0 0 1
Neighs:    0 ave 0 max 0 min
Histogram: 2 0 0 0 0 0 0 0 0 0

Total # of neighbors = 0
Ave neighs/atom = 0
Neighbor list builds = 0
Dangerous builds = 0
write_restart ../DEM/post/restart/liggghts.restartCFDEM
run 100    
Setting up run at Thu Jun 11 07:22:57 2020

Memory usage per processor = 4.23812 Mbytes
    Step    Atoms         KinEng            rke         Volume 
    2900        1  1.0950441e-11              0          0.001 
CFD Coupling established at step 3000
    3000        1  1.1120987e-11              0          0.001 
Loop time of 0.000260029 on 2 procs for 100 steps with 1 atoms, finish time Thu Jun 11 07:22:57 2020


Pair  time (%) = 2.28565e-05 (8.79)
Neigh time (%) = 0 (0)
Comm  time (%) = 4.56065e-05 (17.539)
Outpt time (%) = 2.6744e-05 (10.285)
Other time (%) = 0.000164821 (63.3859)

Nlocal:    0.5 ave 1 max 0 min
Histogram: 1 0 0 0 0 0 0 0 0 1
Nghost:    0.5 ave 1 max 0 min
Histogram: 1 0 0 0 0 0 0 0 0 1
Neighs:    0 ave 0 max 0 min
Histogram: 2 0 0 0 0 0 0 0 0 0

Total # of neighbors = 0
Ave neighs/atom = 0
Neighbor list builds = 0
Dangerous builds = 0
write_restart ../DEM/post/restart/liggghts.restartCFDEM
run 100    
Setting up run at Thu Jun 11 07:22:57 2020

Memory usage per processor = 4.23812 Mbytes
    Step    Atoms         KinEng            rke         Volume 
    3000        1  1.1120987e-11              0          0.001 
CFD Coupling established at step 3100
    3100        1  1.1278548e-11              0          0.001 
Loop time of 0.000244715 on 2 procs for 100 steps with 1 atoms, finish time Thu Jun 11 07:22:57 2020


Pair  time (%) = 2.2847e-05 (9.33615)
Neigh time (%) = 0 (0)
Comm  time (%) = 4.4926e-05 (18.3585)
Outpt time (%) = 1.03865e-05 (4.24432)
Other time (%) = 0.000166556 (68.0611)

Nlocal:    0.5 ave 1 max 0 min
Histogram: 1 0 0 0 0 0 0 0 0 1
Nghost:    0.5 ave 1 max 0 min
Histogram: 1 0 0 0 0 0 0 0 0 1
Neighs:    0 ave 0 max 0 min
Histogram: 2 0 0 0 0 0 0 0 0 0

Total # of neighbors = 0
Ave neighs/atom = 0
Neighbor list builds = 0
Dangerous builds = 0
write_restart ../DEM/post/restart/liggghts.restartCFDEM
run 100    
Setting up run at Thu Jun 11 07:22:57 2020

Memory usage per processor = 4.23812 Mbytes
    Step    Atoms         KinEng            rke         Volume 
    3100        1  1.1278548e-11              0          0.001 
CFD Coupling established at step 3200
    3200        1  1.1419226e-11              0          0.001 
Loop time of 0.00024398 on 2 procs for 100 steps with 1 atoms, finish time Thu Jun 11 07:22:57 2020


Pair  time (%) = 2.20375e-05 (9.0325)
Neigh time (%) = 0 (0)
Comm  time (%) = 4.59875e-05 (18.8489)
Outpt time (%) = 1.04735e-05 (4.29277)
Other time (%) = 0.000165481 (67.8258)

Nlocal:    0.5 ave 1 max 0 min
Histogram: 1 0 0 0 0 0 0 0 0 1
Nghost:    0.5 ave 1 max 0 min
Histogram: 1 0 0 0 0 0 0 0 0 1
Neighs:    0 ave 0 max 0 min
Histogram: 2 0 0 0 0 0 0 0 0 0

Total # of neighbors = 0
Ave neighs/atom = 0
Neighbor list builds = 0
Dangerous builds = 0
write_restart ../DEM/post/restart/liggghts.restartCFDEM
run 100    
Setting up run at Thu Jun 11 07:22:57 2020

Memory usage per processor = 4.23812 Mbytes
    Step    Atoms         KinEng            rke         Volume 
    3200        1  1.1419226e-11              0          0.001 
CFD Coupling established at step 3300
    3300        1  1.1549028e-11              0          0.001 
Loop time of 0.000243143 on 2 procs for 100 steps with 1 atoms, finish time Thu Jun 11 07:22:57 2020


Pair  time (%) = 2.2817e-05 (9.38421)
Neigh time (%) = 0 (0)
Comm  time (%) = 4.4909e-05 (18.4702)
Outpt time (%) = 1.06375e-05 (4.37501)
Other time (%) = 0.000164779 (67.7705)

Nlocal:    0.5 ave 1 max 0 min
Histogram: 1 0 0 0 0 0 0 0 0 1
Nghost:    0.5 ave 1 max 0 min
Histogram: 1 0 0 0 0 0 0 0 0 1
Neighs:    0 ave 0 max 0 min
Histogram: 2 0 0 0 0 0 0 0 0 0

Total # of neighbors = 0
Ave neighs/atom = 0
Neighbor list builds = 0
Dangerous builds = 0
write_restart ../DEM/post/restart/liggghts.restartCFDEM
run 100    
Setting up run at Thu Jun 11 07:22:57 2020

Memory usage per processor = 4.23812 Mbytes
    Step    Atoms         KinEng            rke         Volume 
    3300        1  1.1549028e-11              0          0.001 
CFD Coupling established at step 3400
    3400        1  1.1668708e-11              0          0.001 
Loop time of 0.000242743 on 2 procs for 100 steps with 1 atoms, finish time Thu Jun 11 07:22:57 2020


Pair  time (%) = 2.4105e-05 (9.93025)
Neigh time (%) = 0 (0)
Comm  time (%) = 4.46665e-05 (18.4007)
Outpt time (%) = 1.05375e-05 (4.34101)
Other time (%) = 0.000163434 (67.328)

Nlocal:    0.5 ave 1 max 0 min
Histogram: 1 0 0 0 0 0 0 0 0 1
Nghost:    0.5 ave 1 max 0 min
Histogram: 1 0 0 0 0 0 0 0 0 1
Neighs:    0 ave 0 max 0 min
Histogram: 2 0 0 0 0 0 0 0 0 0

Total # of neighbors = 0
Ave neighs/atom = 0
Neighbor list builds = 0
Dangerous builds = 0
write_restart ../DEM/post/restart/liggghts.restartCFDEM
run 100    
Setting up run at Thu Jun 11 07:22:57 2020

Memory usage per processor = 4.23812 Mbytes
    Step    Atoms         KinEng            rke         Volume 
    3400        1  1.1668708e-11              0          0.001 
CFD Coupling established at step 3500
    3500        1  1.1779128e-11              0          0.001 
Loop time of 0.000247128 on 2 procs for 100 steps with 1 atoms, finish time Thu Jun 11 07:22:57 2020


Pair  time (%) = 2.3865e-05 (9.65696)
Neigh time (%) = 0 (0)
Comm  time (%) = 4.7151e-05 (19.0796)
Outpt time (%) = 1.0734e-05 (4.34351)
Other time (%) = 0.000165377 (66.9199)

Nlocal:    0.5 ave 1 max 0 min
Histogram: 1 0 0 0 0 0 0 0 0 1
Nghost:    0.5 ave 1 max 0 min
Histogram: 1 0 0 0 0 0 0 0 0 1
Neighs:    0 ave 0 max 0 min
Histogram: 2 0 0 0 0 0 0 0 0 0

Total # of neighbors = 0
Ave neighs/atom = 0
Neighbor list builds = 0
Dangerous builds = 0
write_restart ../DEM/post/restart/liggghts.restartCFDEM
run 100    
Setting up run at Thu Jun 11 07:22:57 2020

Memory usage per processor = 4.23812 Mbytes
    Step    Atoms         KinEng            rke         Volume 
    3500        1  1.1779128e-11              0          0.001 
CFD Coupling established at step 3600
    3600        1  1.1881012e-11              0          0.001 
Loop time of 0.000251043 on 2 procs for 100 steps with 1 atoms, finish time Thu Jun 11 07:22:57 2020


Pair  time (%) = 2.27145e-05 (9.04803)
Neigh time (%) = 0 (0)
Comm  time (%) = 4.8162e-05 (19.1847)
Outpt time (%) = 1.0758e-05 (4.28531)
Other time (%) = 0.000169409 (67.4819)

Nlocal:    0.5 ave 1 max 0 min
Histogram: 1 0 0 0 0 0 0 0 0 1
Nghost:    0.5 ave 1 max 0 min
Histogram: 1 0 0 0 0 0 0 0 0 1
Neighs:    0 ave 0 max 0 min
Histogram: 2 0 0 0 0 0 0 0 0 0

Total # of neighbors = 0
Ave neighs/atom = 0
Neighbor list builds = 0
Dangerous builds = 0
write_restart ../DEM/post/restart/liggghts.restartCFDEM
run 100    
Setting up run at Thu Jun 11 07:22:57 2020

Memory usage per processor = 4.23812 Mbytes
    Step    Atoms         KinEng            rke         Volume 
    3600        1  1.1881012e-11              0          0.001 
CFD Coupling established at step 3700
    3700        1  1.1974963e-11              0          0.001 
Loop time of 0.000245214 on 2 procs for 100 steps with 1 atoms, finish time Thu Jun 11 07:22:57 2020


Pair  time (%) = 2.3453e-05 (9.56428)
Neigh time (%) = 0 (0)
Comm  time (%) = 4.57095e-05 (18.6406)
Outpt time (%) = 1.0691e-05 (4.35986)
Other time (%) = 0.000165361 (67.4352)

Nlocal:    0.5 ave 1 max 0 min
Histogram: 1 0 0 0 0 0 0 0 0 1
Nghost:    0.5 ave 1 max 0 min
Histogram: 1 0 0 0 0 0 0 0 0 1
Neighs:    0 ave 0 max 0 min
Histogram: 2 0 0 0 0 0 0 0 0 0

Total # of neighbors = 0
Ave neighs/atom = 0
Neighbor list builds = 0
Dangerous builds = 0
write_restart ../DEM/post/restart/liggghts.restartCFDEM
run 100    
Setting up run at Thu Jun 11 07:22:57 2020

Memory usage per processor = 4.23812 Mbytes
    Step    Atoms         KinEng            rke         Volume 
    3700        1  1.1974963e-11              0          0.001 
CFD Coupling established at step 3800
    3800        1  1.2061573e-11              0          0.001 
Loop time of 0.000247808 on 2 procs for 100 steps with 1 atoms, finish time Thu Jun 11 07:22:57 2020


Pair  time (%) = 2.3797e-05 (9.603)
Neigh time (%) = 0 (0)
Comm  time (%) = 4.7992e-05 (19.3666)
Outpt time (%) = 1.07265e-05 (4.32855)
Other time (%) = 0.000165292 (66.7018)

Nlocal:    0.5 ave 1 max 0 min
Histogram: 1 0 0 0 0 0 0 0 0 1
Nghost:    0.5 ave 1 max 0 min
Histogram: 1 0 0 0 0 0 0 0 0 1
Neighs:    0 ave 0 max 0 min
Histogram: 2 0 0 0 0 0 0 0 0 0

Total # of neighbors = 0
Ave neighs/atom = 0
Neighbor list builds = 0
Dangerous builds = 0
write_restart ../DEM/post/restart/liggghts.restartCFDEM
run 100    
Setting up run at Thu Jun 11 07:22:57 2020

Memory usage per processor = 4.23812 Mbytes
    Step    Atoms         KinEng            rke         Volume 
    3800        1  1.2061573e-11              0          0.001 
CFD Coupling established at step 3900
    3900        1  1.2141392e-11              0          0.001 
Loop time of 0.000247436 on 2 procs for 100 steps with 1 atoms, finish time Thu Jun 11 07:22:57 2020


Pair  time (%) = 2.28515e-05 (9.23532)
Neigh time (%) = 0 (0)
Comm  time (%) = 4.71155e-05 (19.0415)
Outpt time (%) = 1.0824e-05 (4.37446)
Other time (%) = 0.000166645 (67.3487)

Nlocal:    0.5 ave 1 max 0 min
Histogram: 1 0 0 0 0 0 0 0 0 1
Nghost:    0.5 ave 1 max 0 min
Histogram: 1 0 0 0 0 0 0 0 0 1
Neighs:    0 ave 0 max 0 min
Histogram: 2 0 0 0 0 0 0 0 0 0

Total # of neighbors = 0
Ave neighs/atom = 0
Neighbor list builds = 0
Dangerous builds = 0
write_restart ../DEM/post/restart/liggghts.restartCFDEM
run 100    
Setting up run at Thu Jun 11 07:22:57 2020

Memory usage per processor = 4.23812 Mbytes
    Step    Atoms         KinEng            rke         Volume 
    3900        1  1.2141392e-11              0          0.001 
CFD Coupling established at step 4000
    4000        1  1.2214951e-11              0          0.001 
Loop time of 0.000260946 on 2 procs for 100 steps with 1 atoms, finish time Thu Jun 11 07:22:57 2020


Pair  time (%) = 2.30665e-05 (8.83958)
Neigh time (%) = 0 (0)
Comm  time (%) = 4.52245e-05 (17.331)
Outpt time (%) = 2.6484e-05 (10.1492)
Other time (%) = 0.000166171 (63.6802)

Nlocal:    0.5 ave 1 max 0 min
Histogram: 1 0 0 0 0 0 0 0 0 1
Nghost:    0.5 ave 1 max 0 min
Histogram: 1 0 0 0 0 0 0 0 0 1
Neighs:    0 ave 0 max 0 min
Histogram: 2 0 0 0 0 0 0 0 0 0

Total # of neighbors = 0
Ave neighs/atom = 0
Neighbor list builds = 0
Dangerous builds = 0
write_restart ../DEM/post/restart/liggghts.restartCFDEM
run 100    
Setting up run at Thu Jun 11 07:22:57 2020

Memory usage per processor = 4.23812 Mbytes
    Step    Atoms         KinEng            rke         Volume 
    4000        1  1.2214951e-11              0          0.001 
CFD Coupling established at step 4100
    4100        1  1.2282757e-11              0          0.001 
Loop time of 0.000242203 on 2 procs for 100 steps with 1 atoms, finish time Thu Jun 11 07:22:57 2020


Pair  time (%) = 2.3714e-05 (9.79096)
Neigh time (%) = 0 (0)
Comm  time (%) = 4.521e-05 (18.6662)
Outpt time (%) = 1.02655e-05 (4.23839)
Other time (%) = 0.000163014 (67.3045)

Nlocal:    0.5 ave 1 max 0 min
Histogram: 1 0 0 0 0 0 0 0 0 1
Nghost:    0.5 ave 1 max 0 min
Histogram: 1 0 0 0 0 0 0 0 0 1
Neighs:    0 ave 0 max 0 min
Histogram: 2 0 0 0 0 0 0 0 0 0

Total # of neighbors = 0
Ave neighs/atom = 0
Neighbor list builds = 0
Dangerous builds = 0
write_restart ../DEM/post/restart/liggghts.restartCFDEM
run 100    
Setting up run at Thu Jun 11 07:22:57 2020

Memory usage per processor = 4.23812 Mbytes
    Step    Atoms         KinEng            rke         Volume 
    4100        1  1.2282757e-11              0          0.001 
CFD Coupling established at step 4200
    4200        1  1.2345289e-11              0          0.001 
Loop time of 0.000242462 on 2 procs for 100 steps with 1 atoms, finish time Thu Jun 11 07:22:57 2020


Pair  time (%) = 2.34605e-05 (9.67593)
Neigh time (%) = 0 (0)
Comm  time (%) = 4.532e-05 (18.6916)
Outpt time (%) = 9.046e-06 (3.73089)
Other time (%) = 0.000164636 (67.9016)

Nlocal:    0.5 ave 1 max 0 min
Histogram: 1 0 0 0 0 0 0 0 0 1
Nghost:    0.5 ave 1 max 0 min
Histogram: 1 0 0 0 0 0 0 0 0 1
Neighs:    0 ave 0 max 0 min
Histogram: 2 0 0 0 0 0 0 0 0 0

Total # of neighbors = 0
Ave neighs/atom = 0
Neighbor list builds = 0
Dangerous builds = 0
write_restart ../DEM/post/restart/liggghts.restartCFDEM
run 100    
Setting up run at Thu Jun 11 07:22:57 2020

Memory usage per processor = 4.23812 Mbytes
    Step    Atoms         KinEng            rke         Volume 
    4200        1  1.2345289e-11              0          0.001 
CFD Coupling established at step 4300
    4300        1  1.2402983e-11              0          0.001 
Loop time of 0.000243808 on 2 procs for 100 steps with 1 atoms, finish time Thu Jun 11 07:22:57 2020


Pair  time (%) = 2.4219e-05 (9.93366)
Neigh time (%) = 0 (0)
Comm  time (%) = 4.5302e-05 (18.5811)
Outpt time (%) = 1.06015e-05 (4.34831)
Other time (%) = 0.000163685 (67.137)

Nlocal:    0.5 ave 1 max 0 min
Histogram: 1 0 0 0 0 0 0 0 0 1
Nghost:    0.5 ave 1 max 0 min
Histogram: 1 0 0 0 0 0 0 0 0 1
Neighs:    0 ave 0 max 0 min
Histogram: 2 0 0 0 0 0 0 0 0 0

Total # of neighbors = 0
Ave neighs/atom = 0
Neighbor list builds = 0
Dangerous builds = 0
write_restart ../DEM/post/restart/liggghts.restartCFDEM
run 100    
Setting up run at Thu Jun 11 07:22:57 2020

Memory usage per processor = 4.23812 Mbytes
    Step    Atoms         KinEng            rke         Volume 
    4300        1  1.2402983e-11              0          0.001 
CFD Coupling established at step 4400
    4400        1  1.2456237e-11              0          0.001 
Loop time of 0.000244041 on 2 procs for 100 steps with 1 atoms, finish time Thu Jun 11 07:22:57 2020


Pair  time (%) = 2.27835e-05 (9.33593)
Neigh time (%) = 0 (0)
Comm  time (%) = 4.59535e-05 (18.8302)
Outpt time (%) = 1.0664e-05 (4.36976)
Other time (%) = 0.00016464 (67.4641)

Nlocal:    0.5 ave 1 max 0 min
Histogram: 1 0 0 0 0 0 0 0 0 1
Nghost:    0.5 ave 1 max 0 min
Histogram: 1 0 0 0 0 0 0 0 0 1
Neighs:    0 ave 0 max 0 min
Histogram: 2 0 0 0 0 0 0 0 0 0

Total # of neighbors = 0
Ave neighs/atom = 0
Neighbor list builds = 0
Dangerous builds = 0
write_restart ../DEM/post/restart/liggghts.restartCFDEM
run 100    
Setting up run at Thu Jun 11 07:22:57 2020

Memory usage per processor = 4.23812 Mbytes
    Step    Atoms         KinEng            rke         Volume 
    4400        1  1.2456237e-11              0          0.001 
CFD Coupling established at step 4500
    4500        1  1.2505414e-11              0          0.001 
Loop time of 0.000254827 on 2 procs for 100 steps with 1 atoms, finish time Thu Jun 11 07:22:57 2020


Pair  time (%) = 2.5121e-05 (9.85804)
Neigh time (%) = 0 (0)
Comm  time (%) = 4.5926e-05 (18.0224)
Outpt time (%) = 1.08775e-05 (4.26857)
Other time (%) = 0.000172903 (67.851)

Nlocal:    0.5 ave 1 max 0 min
Histogram: 1 0 0 0 0 0 0 0 0 1
Nghost:    0.5 ave 1 max 0 min
Histogram: 1 0 0 0 0 0 0 0 0 1
Neighs:    0 ave 0 max 0 min
Histogram: 2 0 0 0 0 0 0 0 0 0

Total # of neighbors = 0
Ave neighs/atom = 0
Neighbor list builds = 0
Dangerous builds = 0
write_restart ../DEM/post/restart/liggghts.restartCFDEM
run 100    
Setting up run at Thu Jun 11 07:22:57 2020

Memory usage per processor = 4.23812 Mbytes
    Step    Atoms         KinEng            rke         Volume 
    4500        1  1.2505414e-11              0          0.001 
CFD Coupling established at step 4600
    4600        1  1.2550852e-11              0          0.001 
Loop time of 0.000243409 on 2 procs for 100 steps with 1 atoms, finish time Thu Jun 11 07:22:57 2020


Pair  time (%) = 2.3529e-05 (9.66643)
Neigh time (%) = 0 (0)
Comm  time (%) = 4.58405e-05 (18.8327)
Outpt time (%) = 1.05365e-05 (4.32871)
Other time (%) = 0.000163503 (67.1722)

Nlocal:    0.5 ave 1 max 0 min
Histogram: 1 0 0 0 0 0 0 0 0 1
Nghost:    0.5 ave 1 max 0 min
Histogram: 1 0 0 0 0 0 0 0 0 1
Neighs:    0 ave 0 max 0 min
Histogram: 2 0 0 0 0 0 0 0 0 0

Total # of neighbors = 0
Ave neighs/atom = 0
Neighbor list builds = 0
Dangerous builds = 0
write_restart ../DEM/post/restart/liggghts.restartCFDEM
run 100    
Setting up run at Thu Jun 11 07:22:57 2020

Memory usage per processor = 4.23812 Mbytes
    Step    Atoms         KinEng            rke         Volume 
    4600        1  1.2550852e-11              0          0.001 
CFD Coupling established at step 4700
    4700        1  1.2592858e-11              0          0.001 
Loop time of 0.000244033 on 2 procs for 100 steps with 1 atoms, finish time Thu Jun 11 07:22:57 2020


Pair  time (%) = 2.2881e-05 (9.37619)
Neigh time (%) = 0 (0)
Comm  time (%) = 4.51315e-05 (18.494)
Outpt time (%) = 1.0859e-05 (4.44981)
Other time (%) = 0.000165162 (67.68)

Nlocal:    0.5 ave 1 max 0 min
Histogram: 1 0 0 0 0 0 0 0 0 1
Nghost:    0.5 ave 1 max 0 min
Histogram: 1 0 0 0 0 0 0 0 0 1
Neighs:    0 ave 0 max 0 min
Histogram: 2 0 0 0 0 0 0 0 0 0

Total # of neighbors = 0
Ave neighs/atom = 0
Neighbor list builds = 0
Dangerous builds = 0
write_restart ../DEM/post/restart/liggghts.restartCFDEM
run 100    
Setting up run at Thu Jun 11 07:22:57 2020

Memory usage per processor = 4.23812 Mbytes
    Step    Atoms         KinEng            rke         Volume 
    4700        1  1.2592858e-11              0          0.001 
CFD Coupling established at step 4800
    4800        1  1.2631712e-11              0          0.001 
Loop time of 0.000244643 on 2 procs for 100 steps with 1 atoms, finish time Thu Jun 11 07:22:57 2020


Pair  time (%) = 2.3299e-05 (9.52367)
Neigh time (%) = 0 (0)
Comm  time (%) = 4.61045e-05 (18.8456)
Outpt time (%) = 1.0592e-05 (4.32957)
Other time (%) = 0.000164647 (67.3011)

Nlocal:    0.5 ave 1 max 0 min
Histogram: 1 0 0 0 0 0 0 0 0 1
Nghost:    0.5 ave 1 max 0 min
Histogram: 1 0 0 0 0 0 0 0 0 1
Neighs:    0 ave 0 max 0 min
Histogram: 2 0 0 0 0 0 0 0 0 0

Total # of neighbors = 0
Ave neighs/atom = 0
Neighbor list builds = 0
Dangerous builds = 0
write_restart ../DEM/post/restart/liggghts.restartCFDEM
run 100    
Setting up run at Thu Jun 11 07:22:57 2020

Memory usage per processor = 4.23812 Mbytes
    Step    Atoms         KinEng            rke         Volume 
    4800        1  1.2631712e-11              0          0.001 
CFD Coupling established at step 4900
    4900        1  1.2667676e-11              0          0.001 
Loop time of 0.0002433 on 2 procs for 100 steps with 1 atoms, finish time Thu Jun 11 07:22:57 2020


Pair  time (%) = 2.34935e-05 (9.65619)
Neigh time (%) = 0 (0)
Comm  time (%) = 4.5655e-05 (18.7649)
Outpt time (%) = 1.05075e-05 (4.31874)
Other time (%) = 0.000163644 (67.2602)

Nlocal:    0.5 ave 1 max 0 min
Histogram: 1 0 0 0 0 0 0 0 0 1
Nghost:    0.5 ave 1 max 0 min
Histogram: 1 0 0 0 0 0 0 0 0 1
Neighs:    0 ave 0 max 0 min
Histogram: 2 0 0 0 0 0 0 0 0 0

Total # of neighbors = 0
Ave neighs/atom = 0
Neighbor list builds = 0
Dangerous builds = 0
write_restart ../DEM/post/restart/liggghts.restartCFDEM
run 100    
Setting up run at Thu Jun 11 07:22:57 2020

Memory usage per processor = 4.23812 Mbytes
    Step    Atoms         KinEng            rke         Volume 
    4900        1  1.2667676e-11              0          0.001 
CFD Coupling established at step 5000
    5000        1  1.2700986e-11              0          0.001 
Loop time of 0.000259602 on 2 procs for 100 steps with 1 atoms, finish time Thu Jun 11 07:22:57 2020


Pair  time (%) = 2.35035e-05 (9.05365)
Neigh time (%) = 0 (0)
Comm  time (%) = 4.55735e-05 (17.5551)
Outpt time (%) = 2.54755e-05 (9.81327)
Other time (%) = 0.00016505 (63.578)

Nlocal:    0.5 ave 1 max 0 min
Histogram: 1 0 0 0 0 0 0 0 0 1
Nghost:    0.5 ave 1 max 0 min
Histogram: 1 0 0 0 0 0 0 0 0 1
Neighs:    0 ave 0 max 0 min
Histogram: 2 0 0 0 0 0 0 0 0 0

Total # of neighbors = 0
Ave neighs/atom = 0
Neighbor list builds = 0
Dangerous builds = 0
write_restart ../DEM/post/restart/liggghts.restartCFDEM
run 100    
Setting up run at Thu Jun 11 07:22:57 2020

Memory usage per processor = 4.23812 Mbytes
    Step    Atoms         KinEng            rke         Volume 
    5000        1  1.2700986e-11              0          0.001 
CFD Coupling established at step 5100
    5100        1  1.2731861e-11              0          0.001 
Loop time of 0.000243897 on 2 procs for 100 steps with 1 atoms, finish time Thu Jun 11 07:22:57 2020


Pair  time (%) = 2.3461e-05 (9.61924)
Neigh time (%) = 0 (0)
Comm  time (%) = 4.49385e-05 (18.4252)
Outpt time (%) = 1.0213e-05 (4.18743)
Other time (%) = 0.000165284 (67.7681)

Nlocal:    0.5 ave 1 max 0 min
Histogram: 1 0 0 0 0 0 0 0 0 1
Nghost:    0.5 ave 1 max 0 min
Histogram: 1 0 0 0 0 0 0 0 0 1
Neighs:    0 ave 0 max 0 min
Histogram: 2 0 0 0 0 0 0 0 0 0

Total # of neighbors = 0
Ave neighs/atom = 0
Neighbor list builds = 0
Dangerous builds = 0
write_restart ../DEM/post/restart/liggghts.restartCFDEM
run 100    
Setting up run at Thu Jun 11 07:22:57 2020

Memory usage per processor = 4.23812 Mbytes
    Step    Atoms         KinEng            rke         Volume 
    5100        1  1.2731861e-11              0          0.001 
CFD Coupling established at step 5200
    5200        1  1.2753306e-11              0          0.001 
Loop time of 0.000243204 on 2 procs for 100 steps with 1 atoms, finish time Thu Jun 11 07:22:57 2020


Pair  time (%) = 2.267e-05 (9.32141)
Neigh time (%) = 0 (0)
Comm  time (%) = 4.5538e-05 (18.7242)
Outpt time (%) = 1.08675e-05 (4.46848)
Other time (%) = 0.000164128 (67.4859)

Nlocal:    0.5 ave 1 max 0 min
Histogram: 1 0 0 0 0 0 0 0 0 1
Nghost:    0.5 ave 1 max 0 min
Histogram: 1 0 0 0 0 0 0 0 0 1
Neighs:    0 ave 0 max 0 min
Histogram: 2 0 0 0 0 0 0 0 0 0

Total # of neighbors = 0
Ave neighs/atom = 0
Neighbor list builds = 0
Dangerous builds = 0
write_restart ../DEM/post/restart/liggghts.restartCFDEM
run 100    
Setting up run at Thu Jun 11 07:22:57 2020

Memory usage per processor = 4.23812 Mbytes
    Step    Atoms         KinEng            rke         Volume 
    5200        1  1.2753306e-11              0          0.001 
CFD Coupling established at step 5300
    5300        1  1.2773417e-11              0          0.001 
Loop time of 0.000244817 on 2 procs for 100 steps with 1 atoms, finish time Thu Jun 11 07:22:57 2020


Pair  time (%) = 2.19665e-05 (8.9726)
Neigh time (%) = 0 (0)
Comm  time (%) = 4.49765e-05 (18.3714)
Outpt time (%) = 1.05785e-05 (4.32097)
Other time (%) = 0.000167296 (68.335)

Nlocal:    0.5 ave 1 max 0 min
Histogram: 1 0 0 0 0 0 0 0 0 1
Nghost:    0.5 ave 1 max 0 min
Histogram: 1 0 0 0 0 0 0 0 0 1
Neighs:    0 ave 0 max 0 min
Histogram: 2 0 0 0 0 0 0 0 0 0

Total # of neighbors = 0
Ave neighs/atom = 0
Neighbor list builds = 0
Dangerous builds = 0
write_restart ../DEM/post/restart/liggghts.restartCFDEM
run 100    
Setting up run at Thu Jun 11 07:22:57 2020

Memory usage per processor = 4.23812 Mbytes
    Step    Atoms         KinEng            rke         Volume 
    5300        1  1.2773417e-11              0          0.001 
CFD Coupling established at step 5400
    5400        1  1.2792225e-11              0          0.001 
Loop time of 0.000242553 on 2 procs for 100 steps with 1 atoms, finish time Thu Jun 11 07:22:57 2020


Pair  time (%) = 2.2056e-05 (9.09329)
Neigh time (%) = 0 (0)
Comm  time (%) = 4.4612e-05 (18.3927)
Outpt time (%) = 1.0506e-05 (4.33143)
Other time (%) = 0.000165378 (68.1826)

Nlocal:    0.5 ave 1 max 0 min
Histogram: 1 0 0 0 0 0 0 0 0 1
Nghost:    0.5 ave 1 max 0 min
Histogram: 1 0 0 0 0 0 0 0 0 1
Neighs:    0 ave 0 max 0 min
Histogram: 2 0 0 0 0 0 0 0 0 0

Total # of neighbors = 0
Ave neighs/atom = 0
Neighbor list builds = 0
Dangerous builds = 0
write_restart ../DEM/post/restart/liggghts.restartCFDEM
run 100    
Setting up run at Thu Jun 11 07:22:57 2020

Memory usage per processor = 4.23812 Mbytes
    Step    Atoms         KinEng            rke         Volume 
    5400        1  1.2792225e-11              0          0.001 
CFD Coupling established at step 5500
    5500        1  1.2809948e-11              0          0.001 
Loop time of 0.00024411 on 2 procs for 100 steps with 1 atoms, finish time Thu Jun 11 07:22:57 2020


Pair  time (%) = 2.2949e-05 (9.40109)
Neigh time (%) = 0 (0)
Comm  time (%) = 4.5249e-05 (18.5363)
Outpt time (%) = 1.0614e-05 (4.34804)
Other time (%) = 0.000165298 (67.7146)

Nlocal:    0.5 ave 1 max 0 min
Histogram: 1 0 0 0 0 0 0 0 0 1
Nghost:    0.5 ave 1 max 0 min
Histogram: 1 0 0 0 0 0 0 0 0 1
Neighs:    0 ave 0 max 0 min
Histogram: 2 0 0 0 0 0 0 0 0 0

Total # of neighbors = 0
Ave neighs/atom = 0
Neighbor list builds = 0
Dangerous builds = 0
write_restart ../DEM/post/restart/liggghts.restartCFDEM
run 100    
Setting up run at Thu Jun 11 07:22:57 2020

Memory usage per processor = 4.23812 Mbytes
    Step    Atoms         KinEng            rke         Volume 
    5500        1  1.2809948e-11              0          0.001 
CFD Coupling established at step 5600
    5600        1  1.2826624e-11              0          0.001 
Loop time of 0.000245421 on 2 procs for 100 steps with 1 atoms, finish time Thu Jun 11 07:22:57 2020


Pair  time (%) = 2.27285e-05 (9.26104)
Neigh time (%) = 0 (0)
Comm  time (%) = 4.5448e-05 (18.5184)
Outpt time (%) = 1.0557e-05 (4.3016)
Other time (%) = 0.000166687 (67.9189)

Nlocal:    0.5 ave 1 max 0 min
Histogram: 1 0 0 0 0 0 0 0 0 1
Nghost:    0.5 ave 1 max 0 min
Histogram: 1 0 0 0 0 0 0 0 0 1
Neighs:    0 ave 0 max 0 min
Histogram: 2 0 0 0 0 0 0 0 0 0

Total # of neighbors = 0
Ave neighs/atom = 0
Neighbor list builds = 0
Dangerous builds = 0
write_restart ../DEM/post/restart/liggghts.restartCFDEM
run 100    
Setting up run at Thu Jun 11 07:22:57 2020

Memory usage per processor = 4.23812 Mbytes
    Step    Atoms         KinEng            rke         Volume 
    5600        1  1.2826624e-11              0          0.001 
CFD Coupling established at step 5700
    5700        1   1.284231e-11              0          0.001 
Loop time of 0.000246543 on 2 procs for 100 steps with 1 atoms, finish time Thu Jun 11 07:22:57 2020


Pair  time (%) = 2.1871e-05 (8.87105)
Neigh time (%) = 0 (0)
Comm  time (%) = 4.45955e-05 (18.0883)
Outpt time (%) = 1.04695e-05 (4.24651)
Other time (%) = 0.000169608 (68.7941)

Nlocal:    0.5 ave 1 max 0 min
Histogram: 1 0 0 0 0 0 0 0 0 1
Nghost:    0.5 ave 1 max 0 min
Histogram: 1 0 0 0 0 0 0 0 0 1
Neighs:    0 ave 0 max 0 min
Histogram: 2 0 0 0 0 0 0 0 0 0

Total # of neighbors = 0
Ave neighs/atom = 0
Neighbor list builds = 0
Dangerous builds = 0
write_restart ../DEM/post/restart/liggghts.restartCFDEM
run 100    
Setting up run at Thu Jun 11 07:22:57 2020

Memory usage per processor = 4.23812 Mbytes
    Step    Atoms         KinEng            rke         Volume 
    5700        1   1.284231e-11              0          0.001 
CFD Coupling established at step 5800
    5800        1  1.2857056e-11              0          0.001 
Loop time of 0.000243091 on 2 procs for 100 steps with 1 atoms, finish time Thu Jun 11 07:22:57 2020


Pair  time (%) = 2.181e-05 (8.97197)
Neigh time (%) = 0 (0)
Comm  time (%) = 4.51605e-05 (18.5776)
Outpt time (%) = 1.05075e-05 (4.32246)
Other time (%) = 0.000165612 (68.1279)

Nlocal:    0.5 ave 1 max 0 min
Histogram: 1 0 0 0 0 0 0 0 0 1
Nghost:    0.5 ave 1 max 0 min
Histogram: 1 0 0 0 0 0 0 0 0 1
Neighs:    0 ave 0 max 0 min
Histogram: 2 0 0 0 0 0 0 0 0 0

Total # of neighbors = 0
Ave neighs/atom = 0
Neighbor list builds = 0
Dangerous builds = 0
write_restart ../DEM/post/restart/liggghts.restartCFDEM
run 100    
Setting up run at Thu Jun 11 07:22:57 2020

Memory usage per processor = 4.23812 Mbytes
    Step    Atoms         KinEng            rke         Volume 
    5800        1  1.2857056e-11              0          0.001 
CFD Coupling established at step 5900
    5900        1  1.2870912e-11              0          0.001 
Loop time of 0.000243576 on 2 procs for 100 steps with 1 atoms, finish time Thu Jun 11 07:22:57 2020


Pair  time (%) = 2.25995e-05 (9.27819)
Neigh time (%) = 0 (0)
Comm  time (%) = 4.49175e-05 (18.4408)
Outpt time (%) = 1.05055e-05 (4.31302)
Other time (%) = 0.000165554 (67.968)

Nlocal:    0.5 ave 1 max 0 min
Histogram: 1 0 0 0 0 0 0 0 0 1
Nghost:    0.5 ave 1 max 0 min
Histogram: 1 0 0 0 0 0 0 0 0 1
Neighs:    0 ave 0 max 0 min
Histogram: 2 0 0 0 0 0 0 0 0 0

Total # of neighbors = 0
Ave neighs/atom = 0
Neighbor list builds = 0
Dangerous builds = 0
write_restart ../DEM/post/restart/liggghts.restartCFDEM
run 100    
Setting up run at Thu Jun 11 07:22:57 2020

Memory usage per processor = 4.23812 Mbytes
    Step    Atoms         KinEng            rke         Volume 
    5900        1  1.2870912e-11              0          0.001 
CFD Coupling established at step 6000
    6000        1  1.2883928e-11              0          0.001 
Loop time of 0.000259794 on 2 procs for 100 steps with 1 atoms, finish time Thu Jun 11 07:22:57 2020


Pair  time (%) = 2.2938e-05 (8.8293)
Neigh time (%) = 0 (0)
Comm  time (%) = 4.4139e-05 (16.99)
Outpt time (%) = 2.65055e-05 (10.2025)
Other time (%) = 0.000166212 (63.9782)

Nlocal:    0.5 ave 1 max 0 min
Histogram: 1 0 0 0 0 0 0 0 0 1
Nghost:    0.5 ave 1 max 0 min
Histogram: 1 0 0 0 0 0 0 0 0 1
Neighs:    0 ave 0 max 0 min
Histogram: 2 0 0 0 0 0 0 0 0 0

Total # of neighbors = 0
Ave neighs/atom = 0
Neighbor list builds = 0
Dangerous builds = 0
write_restart ../DEM/post/restart/liggghts.restartCFDEM
run 100    
Setting up run at Thu Jun 11 07:22:57 2020

Memory usage per processor = 4.23812 Mbytes
    Step    Atoms         KinEng            rke         Volume 
    6000        1  1.2883928e-11              0          0.001 
CFD Coupling established at step 6100
    6100        1  1.2896173e-11              0          0.001 
Loop time of 0.000250257 on 2 procs for 100 steps with 1 atoms, finish time Thu Jun 11 07:22:57 2020


Pair  time (%) = 2.46235e-05 (9.83927)
Neigh time (%) = 0 (0)
Comm  time (%) = 4.67525e-05 (18.6818)
Outpt time (%) = 1.058e-05 (4.22765)
Other time (%) = 0.000168301 (67.2513)

Nlocal:    0.5 ave 1 max 0 min
Histogram: 1 0 0 0 0 0 0 0 0 1
Nghost:    0.5 ave 1 max 0 min
Histogram: 1 0 0 0 0 0 0 0 0 1
Neighs:    0 ave 0 max 0 min
Histogram: 2 0 0 0 0 0 0 0 0 0

Total # of neighbors = 0
Ave neighs/atom = 0
Neighbor list builds = 0
Dangerous builds = 0
write_restart ../DEM/post/restart/liggghts.restartCFDEM
run 100    
Setting up run at Thu Jun 11 07:22:57 2020

Memory usage per processor = 4.23812 Mbytes
    Step    Atoms         KinEng            rke         Volume 
    6100        1  1.2896173e-11              0          0.001 
CFD Coupling established at step 6200
    6200        1  1.2907727e-11              0          0.001 
Loop time of 0.000243283 on 2 procs for 100 steps with 1 atoms, finish time Thu Jun 11 07:22:57 2020


Pair  time (%) = 2.379e-05 (9.77872)
Neigh time (%) = 0 (0)
Comm  time (%) = 4.46915e-05 (18.3701)
Outpt time (%) = 1.04605e-05 (4.29972)
Other time (%) = 0.000164341 (67.5514)

Nlocal:    0.5 ave 1 max 0 min
Histogram: 1 0 0 0 0 0 0 0 0 1
Nghost:    0.5 ave 1 max 0 min
Histogram: 1 0 0 0 0 0 0 0 0 1
Neighs:    0 ave 0 max 0 min
Histogram: 2 0 0 0 0 0 0 0 0 0

Total # of neighbors = 0
Ave neighs/atom = 0
Neighbor list builds = 0
Dangerous builds = 0
write_restart ../DEM/post/restart/liggghts.restartCFDEM
run 100    
Setting up run at Thu Jun 11 07:22:57 2020

Memory usage per processor = 4.23812 Mbytes
    Step    Atoms         KinEng            rke         Volume 
    6200        1  1.2907727e-11              0          0.001 
CFD Coupling established at step 6300
    6300        1  1.2918672e-11              0          0.001 
Loop time of 0.000256528 on 2 procs for 100 steps with 1 atoms, finish time Thu Jun 11 07:22:57 2020


Pair  time (%) = 2.27465e-05 (8.86705)
Neigh time (%) = 0 (0)
Comm  time (%) = 4.54445e-05 (17.7152)
Outpt time (%) = 1.78205e-05 (6.94679)
Other time (%) = 0.000170517 (66.471)

Nlocal:    0.5 ave 1 max 0 min
Histogram: 1 0 0 0 0 0 0 0 0 1
Nghost:    0.5 ave 1 max 0 min
Histogram: 1 0 0 0 0 0 0 0 0 1
Neighs:    0 ave 0 max 0 min
Histogram: 2 0 0 0 0 0 0 0 0 0

Total # of neighbors = 0
Ave neighs/atom = 0
Neighbor list builds = 0
Dangerous builds = 0
write_restart ../DEM/post/restart/liggghts.restartCFDEM
run 100    
Setting up run at Thu Jun 11 07:22:57 2020

Memory usage per processor = 4.23812 Mbytes
    Step    Atoms         KinEng            rke         Volume 
    6300        1  1.2918672e-11              0          0.001 
CFD Coupling established at step 6400
    6400        1   1.292908e-11              0          0.001 
Loop time of 0.000251983 on 2 procs for 100 steps with 1 atoms, finish time Thu Jun 11 07:22:57 2020


Pair  time (%) = 2.1988e-05 (8.72599)
Neigh time (%) = 0 (0)
Comm  time (%) = 4.4616e-05 (17.706)
Outpt time (%) = 1.1041e-05 (4.38164)
Other time (%) = 0.000174338 (69.1864)

Nlocal:    0.5 ave 1 max 0 min
Histogram: 1 0 0 0 0 0 0 0 0 1
Nghost:    0.5 ave 1 max 0 min
Histogram: 1 0 0 0 0 0 0 0 0 1
Neighs:    0 ave 0 max 0 min
Histogram: 2 0 0 0 0 0 0 0 0 0

Total # of neighbors = 0
Ave neighs/atom = 0
Neighbor list builds = 0
Dangerous builds = 0
write_restart ../DEM/post/restart/liggghts.restartCFDEM
run 100    
Setting up run at Thu Jun 11 07:22:57 2020

Memory usage per processor = 4.23812 Mbytes
    Step    Atoms         KinEng            rke         Volume 
    6400        1   1.292908e-11              0          0.001 
CFD Coupling established at step 6500
    6500        1  1.2939002e-11              0          0.001 
Loop time of 0.000247808 on 2 procs for 100 steps with 1 atoms, finish time Thu Jun 11 07:22:57 2020


Pair  time (%) = 2.3013e-05 (9.28664)
Neigh time (%) = 0 (0)
Comm  time (%) = 4.52935e-05 (18.2777)
Outpt time (%) = 1.06785e-05 (4.30919)
Other time (%) = 0.000168823 (68.1265)

Nlocal:    0.5 ave 1 max 0 min
Histogram: 1 0 0 0 0 0 0 0 0 1
Nghost:    0.5 ave 1 max 0 min
Histogram: 1 0 0 0 0 0 0 0 0 1
Neighs:    0 ave 0 max 0 min
Histogram: 2 0 0 0 0 0 0 0 0 0

Total # of neighbors = 0
Ave neighs/atom = 0
Neighbor list builds = 0
Dangerous builds = 0
write_restart ../DEM/post/restart/liggghts.restartCFDEM
run 100    
Setting up run at Thu Jun 11 07:22:57 2020

Memory usage per processor = 4.23812 Mbytes
    Step    Atoms         KinEng            rke         Volume 
    6500        1  1.2939002e-11              0          0.001 
CFD Coupling established at step 6600
    6600        1  1.2948485e-11              0          0.001 
Loop time of 0.000243298 on 2 procs for 100 steps with 1 atoms, finish time Thu Jun 11 07:22:57 2020


Pair  time (%) = 2.2986e-05 (9.44767)
Neigh time (%) = 0 (0)
Comm  time (%) = 4.48295e-05 (18.4258)
Outpt time (%) = 1.03165e-05 (4.24027)
Other time (%) = 0.000165166 (67.8863)

Nlocal:    0.5 ave 1 max 0 min
Histogram: 1 0 0 0 0 0 0 0 0 1
Nghost:    0.5 ave 1 max 0 min
Histogram: 1 0 0 0 0 0 0 0 0 1
Neighs:    0 ave 0 max 0 min
Histogram: 2 0 0 0 0 0 0 0 0 0

Total # of neighbors = 0
Ave neighs/atom = 0
Neighbor list builds = 0
Dangerous builds = 0
write_restart ../DEM/post/restart/liggghts.restartCFDEM
run 100    
Setting up run at Thu Jun 11 07:22:57 2020

Memory usage per processor = 4.23812 Mbytes
    Step    Atoms         KinEng            rke         Volume 
    6600        1  1.2948485e-11              0          0.001 
CFD Coupling established at step 6700
    6700        1  1.2957565e-11              0          0.001 
Loop time of 0.000247795 on 2 procs for 100 steps with 1 atoms, finish time Thu Jun 11 07:22:57 2020


Pair  time (%) = 2.17745e-05 (8.7873)
Neigh time (%) = 0 (0)
Comm  time (%) = 4.64525e-05 (18.7463)
Outpt time (%) = 1.07885e-05 (4.3538)
Other time (%) = 0.000168779 (68.1126)

Nlocal:    0.5 ave 1 max 0 min
Histogram: 1 0 0 0 0 0 0 0 0 1
Nghost:    0.5 ave 1 max 0 min
Histogram: 1 0 0 0 0 0 0 0 0 1
Neighs:    0 ave 0 max 0 min
Histogram: 2 0 0 0 0 0 0 0 0 0

Total # of neighbors = 0
Ave neighs/atom = 0
Neighbor list builds = 0
Dangerous builds = 0
write_restart ../DEM/post/restart/liggghts.restartCFDEM
run 100    
Setting up run at Thu Jun 11 07:22:57 2020

Memory usage per processor = 4.23812 Mbytes
    Step    Atoms         KinEng            rke         Volume 
    6700        1  1.2957565e-11              0          0.001 
CFD Coupling established at step 6800
    6800        1  1.2966275e-11              0          0.001 
Loop time of 0.000243737 on 2 procs for 100 steps with 1 atoms, finish time Thu Jun 11 07:22:57 2020


Pair  time (%) = 2.30605e-05 (9.46122)
Neigh time (%) = 0 (0)
Comm  time (%) = 4.4828e-05 (18.392)
Outpt time (%) = 1.0329e-05 (4.23776)
Other time (%) = 0.00016552 (67.9091)

Nlocal:    0.5 ave 1 max 0 min
Histogram: 1 0 0 0 0 0 0 0 0 1
Nghost:    0.5 ave 1 max 0 min
Histogram: 1 0 0 0 0 0 0 0 0 1
Neighs:    0 ave 0 max 0 min
Histogram: 2 0 0 0 0 0 0 0 0 0

Total # of neighbors = 0
Ave neighs/atom = 0
Neighbor list builds = 0
Dangerous builds = 0
write_restart ../DEM/post/restart/liggghts.restartCFDEM
run 100    
Setting up run at Thu Jun 11 07:22:57 2020

Memory usage per processor = 4.23812 Mbytes
    Step    Atoms         KinEng            rke         Volume 
    6800        1  1.2966275e-11              0          0.001 
CFD Coupling established at step 6900
    6900        1  1.2974641e-11              0          0.001 
Loop time of 0.000243201 on 2 procs for 100 steps with 1 atoms, finish time Thu Jun 11 07:22:57 2020


Pair  time (%) = 2.29415e-05 (9.43314)
Neigh time (%) = 0 (0)
Comm  time (%) = 4.5058e-05 (18.5271)
Outpt time (%) = 1.05015e-05 (4.31803)
Other time (%) = 0.0001647 (67.7218)

Nlocal:    0.5 ave 1 max 0 min
Histogram: 1 0 0 0 0 0 0 0 0 1
Nghost:    0.5 ave 1 max 0 min
Histogram: 1 0 0 0 0 0 0 0 0 1
Neighs:    0 ave 0 max 0 min
Histogram: 2 0 0 0 0 0 0 0 0 0

Total # of neighbors = 0
Ave neighs/atom = 0
Neighbor list builds = 0
Dangerous builds = 0
write_restart ../DEM/post/restart/liggghts.restartCFDEM
run 100    
Setting up run at Thu Jun 11 07:22:57 2020

Memory usage per processor = 4.23812 Mbytes
    Step    Atoms         KinEng            rke         Volume 
    6900        1  1.2974641e-11              0          0.001 
CFD Coupling established at step 7000
    7000        1  1.2982692e-11              0          0.001 
Loop time of 0.000259436 on 2 procs for 100 steps with 1 atoms, finish time Thu Jun 11 07:22:57 2020


Pair  time (%) = 2.3877e-05 (9.20343)
Neigh time (%) = 0 (0)
Comm  time (%) = 4.51255e-05 (17.3937)
Outpt time (%) = 2.57605e-05 (9.92942)
Other time (%) = 0.000164673 (63.4735)

Nlocal:    0.5 ave 1 max 0 min
Histogram: 1 0 0 0 0 0 0 0 0 1
Nghost:    0.5 ave 1 max 0 min
Histogram: 1 0 0 0 0 0 0 0 0 1
Neighs:    0 ave 0 max 0 min
Histogram: 2 0 0 0 0 0 0 0 0 0

Total # of neighbors = 0
Ave neighs/atom = 0
Neighbor list builds = 0
Dangerous builds = 0
write_restart ../DEM/post/restart/liggghts.restartCFDEM
run 100    
Setting up run at Thu Jun 11 07:22:57 2020

Memory usage per processor = 4.23812 Mbytes
    Step    Atoms         KinEng            rke         Volume 
    7000        1  1.2982692e-11              0          0.001 
CFD Coupling established at step 7100
    7100        1  1.2990476e-11              0          0.001 
Loop time of 0.000251676 on 2 procs for 100 steps with 1 atoms, finish time Thu Jun 11 07:22:57 2020


Pair  time (%) = 2.40295e-05 (9.54779)
Neigh time (%) = 0 (0)
Comm  time (%) = 4.6114e-05 (18.3228)
Outpt time (%) = 1.0818e-05 (4.29838)
Other time (%) = 0.000170714 (67.8311)

Nlocal:    0.5 ave 1 max 0 min
Histogram: 1 0 0 0 0 0 0 0 0 1
Nghost:    0.5 ave 1 max 0 min
Histogram: 1 0 0 0 0 0 0 0 0 1
Neighs:    0 ave 0 max 0 min
Histogram: 2 0 0 0 0 0 0 0 0 0

Total # of neighbors = 0
Ave neighs/atom = 0
Neighbor list builds = 0
Dangerous builds = 0
write_restart ../DEM/post/restart/liggghts.restartCFDEM
run 100    
Setting up run at Thu Jun 11 07:22:57 2020

Memory usage per processor = 4.23812 Mbytes
    Step    Atoms         KinEng            rke         Volume 
    7100        1  1.2990476e-11              0          0.001 
CFD Coupling established at step 7200
    7200        1  1.2990478e-11              0          0.001 
Loop time of 0.000247057 on 2 procs for 100 steps with 1 atoms, finish time Thu Jun 11 07:22:57 2020


Pair  time (%) = 2.4073e-05 (9.7439)
Neigh time (%) = 0 (0)
Comm  time (%) = 4.6394e-05 (18.7787)
Outpt time (%) = 1.05675e-05 (4.27735)
Other time (%) = 0.000166023 (67.2001)

Nlocal:    0.5 ave 1 max 0 min
Histogram: 1 0 0 0 0 0 0 0 0 1
Nghost:    0.5 ave 1 max 0 min
Histogram: 1 0 0 0 0 0 0 0 0 1
Neighs:    0 ave 0 max 0 min
Histogram: 2 0 0 0 0 0 0 0 0 0

Total # of neighbors = 0
Ave neighs/atom = 0
Neighbor list builds = 0
Dangerous builds = 0
write_restart ../DEM/post/restart/liggghts.restartCFDEM
run 100    
Setting up run at Thu Jun 11 07:22:57 2020

Memory usage per processor = 4.23812 Mbytes
    Step    Atoms         KinEng            rke         Volume 
    7200        1  1.2990478e-11              0          0.001 
CFD Coupling established at step 7300
    7300        1  1.2990738e-11              0          0.001 
Loop time of 0.000245123 on 2 procs for 100 steps with 1 atoms, finish time Thu Jun 11 07:22:57 2020


Pair  time (%) = 2.3946e-05 (9.76897)
Neigh time (%) = 0 (0)
Comm  time (%) = 4.5226e-05 (18.4503)
Outpt time (%) = 1.06535e-05 (4.34619)
Other time (%) = 0.000165298 (67.4345)

Nlocal:    0.5 ave 1 max 0 min
Histogram: 1 0 0 0 0 0 0 0 0 1
Nghost:    0.5 ave 1 max 0 min
Histogram: 1 0 0 0 0 0 0 0 0 1
Neighs:    0 ave 0 max 0 min
Histogram: 2 0 0 0 0 0 0 0 0 0

Total # of neighbors = 0
Ave neighs/atom = 0
Neighbor list builds = 0
Dangerous builds = 0
write_restart ../DEM/post/restart/liggghts.restartCFDEM
run 100    
Setting up run at Thu Jun 11 07:22:57 2020

Memory usage per processor = 4.23812 Mbytes
    Step    Atoms         KinEng            rke         Volume 
    7300        1  1.2990738e-11              0          0.001 
CFD Coupling established at step 7400
    7400        1  1.2991398e-11              0          0.001 
Loop time of 0.000242909 on 2 procs for 100 steps with 1 atoms, finish time Thu Jun 11 07:22:57 2020


Pair  time (%) = 2.18715e-05 (9.00399)
Neigh time (%) = 0 (0)
Comm  time (%) = 4.4818e-05 (18.4505)
Outpt time (%) = 1.0653e-05 (4.38559)
Other time (%) = 0.000165566 (68.1599)

Nlocal:    0.5 ave 1 max 0 min
Histogram: 1 0 0 0 0 0 0 0 0 1
Nghost:    0.5 ave 1 max 0 min
Histogram: 1 0 0 0 0 0 0 0 0 1
Neighs:    0 ave 0 max 0 min
Histogram: 2 0 0 0 0 0 0 0 0 0

Total # of neighbors = 0
Ave neighs/atom = 0
Neighbor list builds = 0
Dangerous builds = 0
write_restart ../DEM/post/restart/liggghts.restartCFDEM
run 100    
Setting up run at Thu Jun 11 07:22:57 2020

Memory usage per processor = 4.23812 Mbytes
    Step    Atoms         KinEng            rke         Volume 
    7400        1  1.2991398e-11              0          0.001 
CFD Coupling established at step 7500
    7500        1  1.2992489e-11              0          0.001 
Loop time of 0.00024802 on 2 procs for 100 steps with 1 atoms, finish time Thu Jun 11 07:22:57 2020


Pair  time (%) = 2.42465e-05 (9.77603)
Neigh time (%) = 0 (0)
Comm  time (%) = 4.59605e-05 (18.531)
Outpt time (%) = 1.0525e-05 (4.24361)
Other time (%) = 0.000167288 (67.4494)

Nlocal:    0.5 ave 1 max 0 min
Histogram: 1 0 0 0 0 0 0 0 0 1
Nghost:    0.5 ave 1 max 0 min
Histogram: 1 0 0 0 0 0 0 0 0 1
Neighs:    0 ave 0 max 0 min
Histogram: 2 0 0 0 0 0 0 0 0 0

Total # of neighbors = 0
Ave neighs/atom = 0
Neighbor list builds = 0
Dangerous builds = 0
write_restart ../DEM/post/restart/liggghts.restartCFDEM
run 100    
Setting up run at Thu Jun 11 07:22:57 2020

Memory usage per processor = 4.23812 Mbytes
    Step    Atoms         KinEng            rke         Volume 
    7500        1  1.2992489e-11              0          0.001 
CFD Coupling established at step 7600
    7600        1  1.2993951e-11              0          0.001 
Loop time of 0.000244275 on 2 procs for 100 steps with 1 atoms, finish time Thu Jun 11 07:22:57 2020


Pair  time (%) = 2.2857e-05 (9.3571)
Neigh time (%) = 0 (0)
Comm  time (%) = 4.49675e-05 (18.4086)
Outpt time (%) = 1.0516e-05 (4.30499)
Other time (%) = 0.000165934 (67.9293)

Nlocal:    0.5 ave 1 max 0 min
Histogram: 1 0 0 0 0 0 0 0 0 1
Nghost:    0.5 ave 1 max 0 min
Histogram: 1 0 0 0 0 0 0 0 0 1
Neighs:    0 ave 0 max 0 min
Histogram: 2 0 0 0 0 0 0 0 0 0

Total # of neighbors = 0
Ave neighs/atom = 0
Neighbor list builds = 0
Dangerous builds = 0
write_restart ../DEM/post/restart/liggghts.restartCFDEM
run 100    
Setting up run at Thu Jun 11 07:22:57 2020

Memory usage per processor = 4.23812 Mbytes
    Step    Atoms         KinEng            rke         Volume 
    7600        1  1.2993951e-11              0          0.001 
CFD Coupling established at step 7700
    7700        1  1.2995718e-11              0          0.001 
Loop time of 0.000247294 on 2 procs for 100 steps with 1 atoms, finish time Thu Jun 11 07:22:57 2020


Pair  time (%) = 2.2914e-05 (9.26591)
Neigh time (%) = 0 (0)
Comm  time (%) = 4.4487e-05 (17.9896)
Outpt time (%) = 1.0406e-05 (4.20796)
Other time (%) = 0.000169487 (68.5366)

Nlocal:    0.5 ave 1 max 0 min
Histogram: 1 0 0 0 0 0 0 0 0 1
Nghost:    0.5 ave 1 max 0 min
Histogram: 1 0 0 0 0 0 0 0 0 1
Neighs:    0 ave 0 max 0 min
Histogram: 2 0 0 0 0 0 0 0 0 0

Total # of neighbors = 0
Ave neighs/atom = 0
Neighbor list builds = 0
Dangerous builds = 0
write_restart ../DEM/post/restart/liggghts.restartCFDEM
run 100    
Setting up run at Thu Jun 11 07:22:57 2020

Memory usage per processor = 4.23812 Mbytes
    Step    Atoms         KinEng            rke         Volume 
    7700        1  1.2995718e-11              0          0.001 
CFD Coupling established at step 7800
    7800        1  1.2997739e-11              0          0.001 
Loop time of 0.00024429 on 2 procs for 100 steps with 1 atoms, finish time Thu Jun 11 07:22:57 2020


Pair  time (%) = 2.1793e-05 (8.92095)
Neigh time (%) = 0 (0)
Comm  time (%) = 4.53905e-05 (18.5806)
Outpt time (%) = 1.09365e-05 (4.47685)
Other time (%) = 0.00016617 (68.0216)

Nlocal:    0.5 ave 1 max 0 min
Histogram: 1 0 0 0 0 0 0 0 0 1
Nghost:    0.5 ave 1 max 0 min
Histogram: 1 0 0 0 0 0 0 0 0 1
Neighs:    0 ave 0 max 0 min
Histogram: 2 0 0 0 0 0 0 0 0 0

Total # of neighbors = 0
Ave neighs/atom = 0
Neighbor list builds = 0
Dangerous builds = 0
write_restart ../DEM/post/restart/liggghts.restartCFDEM
run 100    
Setting up run at Thu Jun 11 07:22:57 2020

Memory usage per processor = 4.23812 Mbytes
    Step    Atoms         KinEng            rke         Volume 
    7800        1  1.2997739e-11              0          0.001 
CFD Coupling established at step 7900
    7900        1  1.2999965e-11              0          0.001 
Loop time of 0.000243732 on 2 procs for 100 steps with 1 atoms, finish time Thu Jun 11 07:22:57 2020


Pair  time (%) = 2.41105e-05 (9.8922)
Neigh time (%) = 0 (0)
Comm  time (%) = 4.54895e-05 (18.6637)
Outpt time (%) = 1.06465e-05 (4.36811)
Other time (%) = 0.000163486 (67.076)

Nlocal:    0.5 ave 1 max 0 min
Histogram: 1 0 0 0 0 0 0 0 0 1
Nghost:    0.5 ave 1 max 0 min
Histogram: 1 0 0 0 0 0 0 0 0 1
Neighs:    0 ave 0 max 0 min
Histogram: 2 0 0 0 0 0 0 0 0 0

Total # of neighbors = 0
Ave neighs/atom = 0
Neighbor list builds = 0
Dangerous builds = 0
write_restart ../DEM/post/restart/liggghts.restartCFDEM
run 100    
Setting up run at Thu Jun 11 07:22:57 2020

Memory usage per processor = 4.23812 Mbytes
    Step    Atoms         KinEng            rke         Volume 
    7900        1  1.2999965e-11              0          0.001 
CFD Coupling established at step 8000
    8000        1  1.3002354e-11              0          0.001 
Loop time of 0.000258154 on 2 procs for 100 steps with 1 atoms, finish time Thu Jun 11 07:22:57 2020


Pair  time (%) = 2.0864e-05 (8.08201)
Neigh time (%) = 0 (0)
Comm  time (%) = 4.4309e-05 (17.1638)
Outpt time (%) = 2.52e-05 (9.76163)
Other time (%) = 0.000167781 (64.9925)

Nlocal:    0.5 ave 1 max 0 min
Histogram: 1 0 0 0 0 0 0 0 0 1
Nghost:    0.5 ave 1 max 0 min
Histogram: 1 0 0 0 0 0 0 0 0 1
Neighs:    0 ave 0 max 0 min
Histogram: 2 0 0 0 0 0 0 0 0 0

Total # of neighbors = 0
Ave neighs/atom = 0
Neighbor list builds = 0
Dangerous builds = 0
write_restart ../DEM/post/restart/liggghts.restartCFDEM
run 100    
Setting up run at Thu Jun 11 07:22:57 2020

Memory usage per processor = 4.23812 Mbytes
    Step    Atoms         KinEng            rke         Volume 
    8000        1  1.3002354e-11              0          0.001 
CFD Coupling established at step 8100
    8100        1  1.3004869e-11              0          0.001 
Loop time of 0.000248759 on 2 procs for 100 steps with 1 atoms, finish time Thu Jun 11 07:22:57 2020


Pair  time (%) = 2.2514e-05 (9.05051)
Neigh time (%) = 0 (0)
Comm  time (%) = 4.31115e-05 (17.3306)
Outpt time (%) = 1.05355e-05 (4.23522)
Other time (%) = 0.000172598 (69.3837)

Nlocal:    0.5 ave 1 max 0 min
Histogram: 1 0 0 0 0 0 0 0 0 1
Nghost:    0.5 ave 1 max 0 min
Histogram: 1 0 0 0 0 0 0 0 0 1
Neighs:    0 ave 0 max 0 min
Histogram: 2 0 0 0 0 0 0 0 0 0

[...]
Histogram: 2 0 0 0 0 0 0 0 0 0

Total # of neighbors = 0
Ave neighs/atom = 0
Neighbor list builds = 0
Dangerous builds = 0
write_restart ../DEM/post/restart/liggghts.restartCFDEM
run 100    
Setting up run at Thu Jun 11 07:22:57 2020

Memory usage per processor = 4.23812 Mbytes
    Step    Atoms         KinEng            rke         Volume 
   12900        1  1.3044309e-11              0          0.001 
CFD Coupling established at step 13000
   13000        1  1.3039682e-11              0          0.001 
Loop time of 0.000231559 on 2 procs for 100 steps with 1 atoms, finish time Thu Jun 11 07:22:57 2020


Pair  time (%) = 2.15445e-05 (9.30411)
Neigh time (%) = 0 (0)
Comm  time (%) = 3.97745e-05 (17.1768)
Outpt time (%) = 2.2827e-05 (9.85796)
Other time (%) = 0.000147413 (63.6611)

Nlocal:    0.5 ave 1 max 0 min
Histogram: 1 0 0 0 0 0 0 0 0 1
Nghost:    0.5 ave 1 max 0 min
Histogram: 1 0 0 0 0 0 0 0 0 1
Neighs:    0 ave 0 max 0 min
Histogram: 2 0 0 0 0 0 0 0 0 0

Total # of neighbors = 0
Ave neighs/atom = 0
Neighbor list builds = 0
Dangerous builds = 0
write_restart ../DEM/post/restart/liggghts.restartCFDEM
run 100    
Setting up run at Thu Jun 11 07:22:57 2020

Memory usage per processor = 4.23812 Mbytes
    Step    Atoms         KinEng            rke         Volume 
   13000        1  1.3039682e-11              0          0.001 
CFD Coupling established at step 13100
   13100        1  1.3035804e-11              0          0.001 
Loop time of 0.000217506 on 2 procs for 100 steps with 1 atoms, finish time Thu Jun 11 07:22:57 2020


Pair  time (%) = 2.18555e-05 (10.0482)
Neigh time (%) = 0 (0)
Comm  time (%) = 4.02475e-05 (18.5041)
Outpt time (%) = 8.8945e-06 (4.08931)
Other time (%) = 0.000146508 (67.3584)

Nlocal:    0.5 ave 1 max 0 min
Histogram: 1 0 0 0 0 0 0 0 0 1
Nghost:    0.5 ave 1 max 0 min
Histogram: 1 0 0 0 0 0 0 0 0 1
Neighs:    0 ave 0 max 0 min
Histogram: 2 0 0 0 0 0 0 0 0 0

Total # of neighbors = 0
Ave neighs/atom = 0
Neighbor list builds = 0
Dangerous builds = 0
write_restart ../DEM/post/restart/liggghts.restartCFDEM
run 100    
Setting up run at Thu Jun 11 07:22:57 2020

Memory usage per processor = 4.23812 Mbytes
    Step    Atoms         KinEng            rke         Volume 
   13100        1  1.3035804e-11              0          0.001 
CFD Coupling established at step 13200
   13200        1  1.3032645e-11              0          0.001 
Loop time of 0.000218343 on 2 procs for 100 steps with 1 atoms, finish time Thu Jun 11 07:22:57 2020


Pair  time (%) = 1.98125e-05 (9.07403)
Neigh time (%) = 0 (0)
Comm  time (%) = 3.97195e-05 (18.1913)
Outpt time (%) = 9.27e-06 (4.24561)
Other time (%) = 0.000149541 (68.489)

Nlocal:    0.5 ave 1 max 0 min
Histogram: 1 0 0 0 0 0 0 0 0 1
Nghost:    0.5 ave 1 max 0 min
Histogram: 1 0 0 0 0 0 0 0 0 1
Neighs:    0 ave 0 max 0 min
Histogram: 2 0 0 0 0 0 0 0 0 0

Total # of neighbors = 0
Ave neighs/atom = 0
Neighbor list builds = 0
Dangerous builds = 0
write_restart ../DEM/post/restart/liggghts.restartCFDEM
run 100    
Setting up run at Thu Jun 11 07:22:57 2020

Memory usage per processor = 4.23812 Mbytes
    Step    Atoms         KinEng            rke         Volume 
   13200        1  1.3032645e-11              0          0.001 
CFD Coupling established at step 13300
   13300        1   1.303025e-11              0          0.001 
Loop time of 0.000216692 on 2 procs for 100 steps with 1 atoms, finish time Thu Jun 11 07:22:57 2020


Pair  time (%) = 1.98955e-05 (9.18149)
Neigh time (%) = 0 (0)
Comm  time (%) = 3.9306e-05 (18.1392)
Outpt time (%) = 9.0105e-06 (4.15822)
Other time (%) = 0.000148479 (68.5211)

Nlocal:    0.5 ave 1 max 0 min
Histogram: 1 0 0 0 0 0 0 0 0 1
Nghost:    0.5 ave 1 max 0 min
Histogram: 1 0 0 0 0 0 0 0 0 1
Neighs:    0 ave 0 max 0 min
Histogram: 2 0 0 0 0 0 0 0 0 0

Total # of neighbors = 0
Ave neighs/atom = 0
Neighbor list builds = 0
Dangerous builds = 0
write_restart ../DEM/post/restart/liggghts.restartCFDEM
run 100    
Setting up run at Thu Jun 11 07:22:57 2020

Memory usage per processor = 4.23812 Mbytes
    Step    Atoms         KinEng            rke         Volume 
   13300        1   1.303025e-11              0          0.001 
CFD Coupling established at step 13400
   13400        1   1.302854e-11              0          0.001 
Loop time of 0.000218298 on 2 procs for 100 steps with 1 atoms, finish time Thu Jun 11 07:22:57 2020


Pair  time (%) = 2.0517e-05 (9.39862)
Neigh time (%) = 0 (0)
Comm  time (%) = 4.025e-05 (18.4381)
Outpt time (%) = 9.199e-06 (4.21396)
Other time (%) = 0.000148332 (67.9493)

Nlocal:    0.5 ave 1 max 0 min
Histogram: 1 0 0 0 0 0 0 0 0 1
Nghost:    0.5 ave 1 max 0 min
Histogram: 1 0 0 0 0 0 0 0 0 1
Neighs:    0 ave 0 max 0 min
Histogram: 2 0 0 0 0 0 0 0 0 0

Total # of neighbors = 0
Ave neighs/atom = 0
Neighbor list builds = 0
Dangerous builds = 0
write_restart ../DEM/post/restart/liggghts.restartCFDEM
run 100    
Setting up run at Thu Jun 11 07:22:57 2020

Memory usage per processor = 4.23812 Mbytes
    Step    Atoms         KinEng            rke         Volume 
   13400        1   1.302854e-11              0          0.001 
CFD Coupling established at step 13500
   13500        1  1.3027425e-11              0          0.001 
Loop time of 0.000218301 on 2 procs for 100 steps with 1 atoms, finish time Thu Jun 11 07:22:57 2020


Pair  time (%) = 2.19115e-05 (10.0373)
Neigh time (%) = 0 (0)
Comm  time (%) = 4.0417e-05 (18.5143)
Outpt time (%) = 9.312e-06 (4.26566)
Other time (%) = 0.000146661 (67.1828)

Nlocal:    0.5 ave 1 max 0 min
Histogram: 1 0 0 0 0 0 0 0 0 1
Nghost:    0.5 ave 1 max 0 min
Histogram: 1 0 0 0 0 0 0 0 0 1
Neighs:    0 ave 0 max 0 min
Histogram: 2 0 0 0 0 0 0 0 0 0

Total # of neighbors = 0
Ave neighs/atom = 0
Neighbor list builds = 0
Dangerous builds = 0
write_restart ../DEM/post/restart/liggghts.restartCFDEM
run 100    
Setting up run at Thu Jun 11 07:22:57 2020

Memory usage per processor = 4.23812 Mbytes
    Step    Atoms         KinEng            rke         Volume 
   13500        1  1.3027425e-11              0          0.001 
CFD Coupling established at step 13600
   13600        1  1.3026827e-11              0          0.001 
Loop time of 0.000217218 on 2 procs for 100 steps with 1 atoms, finish time Thu Jun 11 07:22:57 2020


Pair  time (%) = 1.98805e-05 (9.15233)
Neigh time (%) = 0 (0)
Comm  time (%) = 3.9896e-05 (18.3668)
Outpt time (%) = 9.3015e-06 (4.2821)
Other time (%) = 0.00014814 (68.1988)

Nlocal:    0.5 ave 1 max 0 min
Histogram: 1 0 0 0 0 0 0 0 0 1
Nghost:    0.5 ave 1 max 0 min
Histogram: 1 0 0 0 0 0 0 0 0 1
Neighs:    0 ave 0 max 0 min
Histogram: 2 0 0 0 0 0 0 0 0 0

Total # of neighbors = 0
Ave neighs/atom = 0
Neighbor list builds = 0
Dangerous builds = 0
write_restart ../DEM/post/restart/liggghts.restartCFDEM
run 100    
Setting up run at Thu Jun 11 07:22:57 2020

Memory usage per processor = 4.23812 Mbytes
    Step    Atoms         KinEng            rke         Volume 
   13600        1  1.3026827e-11              0          0.001 
CFD Coupling established at step 13700
   13700        1  1.3026676e-11              0          0.001 
Loop time of 0.000218021 on 2 procs for 100 steps with 1 atoms, finish time Thu Jun 11 07:22:57 2020


Pair  time (%) = 2.19255e-05 (10.0566)
Neigh time (%) = 0 (0)
Comm  time (%) = 3.95805e-05 (18.1544)
Outpt time (%) = 9.3215e-06 (4.27551)
Other time (%) = 0.000147194 (67.5135)

Nlocal:    0.5 ave 1 max 0 min
Histogram: 1 0 0 0 0 0 0 0 0 1
Nghost:    0.5 ave 1 max 0 min
Histogram: 1 0 0 0 0 0 0 0 0 1
Neighs:    0 ave 0 max 0 min
Histogram: 2 0 0 0 0 0 0 0 0 0

Total # of neighbors = 0
Ave neighs/atom = 0
Neighbor list builds = 0
Dangerous builds = 0
write_restart ../DEM/post/restart/liggghts.restartCFDEM
run 100    
Setting up run at Thu Jun 11 07:22:57 2020

Memory usage per processor = 4.23812 Mbytes
    Step    Atoms         KinEng            rke         Volume 
   13700        1  1.3026676e-11              0          0.001 
CFD Coupling established at step 13800
   13800        1  1.3026909e-11              0          0.001 
Loop time of 0.000219525 on 2 procs for 100 steps with 1 atoms, finish time Thu Jun 11 07:22:57 2020


Pair  time (%) = 2.18935e-05 (9.97313)
Neigh time (%) = 0 (0)
Comm  time (%) = 3.9578e-05 (18.0289)
Outpt time (%) = 9.3025e-06 (4.23756)
Other time (%) = 0.000148751 (67.7604)

Nlocal:    0.5 ave 1 max 0 min
Histogram: 1 0 0 0 0 0 0 0 0 1
Nghost:    0.5 ave 1 max 0 min
Histogram: 1 0 0 0 0 0 0 0 0 1
Neighs:    0 ave 0 max 0 min
Histogram: 2 0 0 0 0 0 0 0 0 0

Total # of neighbors = 0
Ave neighs/atom = 0
Neighbor list builds = 0
Dangerous builds = 0
write_restart ../DEM/post/restart/liggghts.restartCFDEM
run 100    
Setting up run at Thu Jun 11 07:22:57 2020

Memory usage per processor = 4.23812 Mbytes
    Step    Atoms         KinEng            rke         Volume 
   13800        1  1.3026909e-11              0          0.001 
CFD Coupling established at step 13900
   13900        1  1.3027465e-11              0          0.001 
Loop time of 0.000218531 on 2 procs for 100 steps with 1 atoms, finish time Thu Jun 11 07:22:57 2020


Pair  time (%) = 2.1591e-05 (9.88006)
Neigh time (%) = 0 (0)
Comm  time (%) = 3.98605e-05 (18.2402)
Outpt time (%) = 9.225e-06 (4.22137)
Other time (%) = 0.000147855 (67.6584)

Nlocal:    0.5 ave 1 max 0 min
Histogram: 1 0 0 0 0 0 0 0 0 1
Nghost:    0.5 ave 1 max 0 min
Histogram: 1 0 0 0 0 0 0 0 0 1
Neighs:    0 ave 0 max 0 min
Histogram: 2 0 0 0 0 0 0 0 0 0

Total # of neighbors = 0
Ave neighs/atom = 0
Neighbor list builds = 0
Dangerous builds = 0
write_restart ../DEM/post/restart/liggghts.restartCFDEM
run 100    
Setting up run at Thu Jun 11 07:22:57 2020

Memory usage per processor = 4.23812 Mbytes
    Step    Atoms         KinEng            rke         Volume 
   13900        1  1.3027465e-11              0          0.001 
CFD Coupling established at step 14000
   14000        1  1.3028297e-11              0          0.001 
Loop time of 0.000242696 on 2 procs for 100 steps with 1 atoms, finish time Thu Jun 11 07:22:57 2020


Pair  time (%) = 2.08485e-05 (8.59038)
Neigh time (%) = 0 (0)
Comm  time (%) = 3.9662e-05 (16.3423)
Outpt time (%) = 3.3467e-05 (13.7897)
Other time (%) = 0.000148719 (61.2777)

Nlocal:    0.5 ave 1 max 0 min
Histogram: 1 0 0 0 0 0 0 0 0 1
Nghost:    0.5 ave 1 max 0 min
Histogram: 1 0 0 0 0 0 0 0 0 1
Neighs:    0 ave 0 max 0 min
Histogram: 2 0 0 0 0 0 0 0 0 0

Total # of neighbors = 0
Ave neighs/atom = 0
Neighbor list builds = 0
Dangerous builds = 0
write_restart ../DEM/post/restart/liggghts.restartCFDEM
run 100    
Setting up run at Thu Jun 11 07:22:57 2020

Memory usage per processor = 4.23812 Mbytes
    Step    Atoms         KinEng            rke         Volume 
   14000        1  1.3028297e-11              0          0.001 
CFD Coupling established at step 14100
   14100        1   1.302939e-11              0          0.001 
Loop time of 0.000216864 on 2 procs for 100 steps with 1 atoms, finish time Thu Jun 11 07:22:57 2020


Pair  time (%) = 2.14465e-05 (9.8894)
Neigh time (%) = 0 (0)
Comm  time (%) = 3.96935e-05 (18.3034)
Outpt time (%) = 8.8175e-06 (4.06592)
Other time (%) = 0.000146906 (67.7412)

Nlocal:    0.5 ave 1 max 0 min
Histogram: 1 0 0 0 0 0 0 0 0 1
Nghost:    0.5 ave 1 max 0 min
Histogram: 1 0 0 0 0 0 0 0 0 1
Neighs:    0 ave 0 max 0 min
Histogram: 2 0 0 0 0 0 0 0 0 0

Total # of neighbors = 0
Ave neighs/atom = 0
Neighbor list builds = 0
Dangerous builds = 0
write_restart ../DEM/post/restart/liggghts.restartCFDEM
run 100    
Setting up run at Thu Jun 11 07:22:57 2020

Memory usage per processor = 4.23812 Mbytes
    Step    Atoms         KinEng            rke         Volume 
   14100        1   1.302939e-11              0          0.001 
CFD Coupling established at step 14200
   14200        1  1.3030739e-11              0          0.001 
Loop time of 0.000222866 on 2 procs for 100 steps with 1 atoms, finish time Thu Jun 11 07:22:57 2020


Pair  time (%) = 2.08765e-05 (9.36729)
Neigh time (%) = 0 (0)
Comm  time (%) = 4.1043e-05 (18.416)
Outpt time (%) = 9.4795e-06 (4.25345)
Other time (%) = 0.000151467 (67.9633)

Nlocal:    0.5 ave 1 max 0 min
Histogram: 1 0 0 0 0 0 0 0 0 1
Nghost:    0.5 ave 1 max 0 min
Histogram: 1 0 0 0 0 0 0 0 0 1
Neighs:    0 ave 0 max 0 min
Histogram: 2 0 0 0 0 0 0 0 0 0

Total # of neighbors = 0
Ave neighs/atom = 0
Neighbor list builds = 0
Dangerous builds = 0
write_restart ../DEM/post/restart/liggghts.restartCFDEM
run 100    
Setting up run at Thu Jun 11 07:22:57 2020

Memory usage per processor = 4.23812 Mbytes
    Step    Atoms         KinEng            rke         Volume 
   14200        1  1.3030739e-11              0          0.001 
CFD Coupling established at step 14300
   14300        1   1.303235e-11              0          0.001 
Loop time of 0.000217946 on 2 procs for 100 steps with 1 atoms, finish time Thu Jun 11 07:22:57 2020


Pair  time (%) = 2.0588e-05 (9.4464)
Neigh time (%) = 0 (0)
Comm  time (%) = 3.95785e-05 (18.1598)
Outpt time (%) = 9.1865e-06 (4.21504)
Other time (%) = 0.000148593 (68.1787)

Nlocal:    0.5 ave 1 max 0 min
Histogram: 1 0 0 0 0 0 0 0 0 1
Nghost:    0.5 ave 1 max 0 min
Histogram: 1 0 0 0 0 0 0 0 0 1
Neighs:    0 ave 0 max 0 min
Histogram: 2 0 0 0 0 0 0 0 0 0

Total # of neighbors = 0
Ave neighs/atom = 0
Neighbor list builds = 0
Dangerous builds = 0
write_restart ../DEM/post/restart/liggghts.restartCFDEM
run 100    
Setting up run at Thu Jun 11 07:22:57 2020

Memory usage per processor = 4.23812 Mbytes
    Step    Atoms         KinEng            rke         Volume 
   14300        1   1.303235e-11              0          0.001 
CFD Coupling established at step 14400
   14400        1   1.303422e-11              0          0.001 
Loop time of 0.000225455 on 2 procs for 100 steps with 1 atoms, finish time Thu Jun 11 07:22:57 2020


Pair  time (%) = 2.06955e-05 (9.17942)
Neigh time (%) = 0 (0)
Comm  time (%) = 4.0227e-05 (17.8425)
Outpt time (%) = 9.315e-06 (4.13164)
Other time (%) = 0.000155218 (68.8464)

Nlocal:    0.5 ave 1 max 0 min
Histogram: 1 0 0 0 0 0 0 0 0 1
Nghost:    0.5 ave 1 max 0 min
Histogram: 1 0 0 0 0 0 0 0 0 1
Neighs:    0 ave 0 max 0 min
Histogram: 2 0 0 0 0 0 0 0 0 0

Total # of neighbors = 0
Ave neighs/atom = 0
Neighbor list builds = 0
Dangerous builds = 0
write_restart ../DEM/post/restart/liggghts.restartCFDEM
run 100    
Setting up run at Thu Jun 11 07:22:57 2020

Memory usage per processor = 4.23812 Mbytes
    Step    Atoms         KinEng            rke         Volume 
   14400        1   1.303422e-11              0          0.001 
CFD Coupling established at step 14500
   14500        1  1.3036332e-11              0          0.001 
Loop time of 0.000217289 on 2 procs for 100 steps with 1 atoms, finish time Thu Jun 11 07:22:57 2020


Pair  time (%) = 2.17645e-05 (10.0164)
Neigh time (%) = 0 (0)
Comm  time (%) = 4.05325e-05 (18.6537)
Outpt time (%) = 9.1765e-06 (4.22317)
Other time (%) = 0.000145816 (67.1068)

Nlocal:    0.5 ave 1 max 0 min
Histogram: 1 0 0 0 0 0 0 0 0 1
Nghost:    0.5 ave 1 max 0 min
Histogram: 1 0 0 0 0 0 0 0 0 1
Neighs:    0 ave 0 max 0 min
Histogram: 2 0 0 0 0 0 0 0 0 0

Total # of neighbors = 0
Ave neighs/atom = 0
Neighbor list builds = 0
Dangerous builds = 0
write_restart ../DEM/post/restart/liggghts.restartCFDEM
run 100    
Setting up run at Thu Jun 11 07:22:57 2020

Memory usage per processor = 4.23812 Mbytes
    Step    Atoms         KinEng            rke         Volume 
   14500        1  1.3036332e-11              0          0.001 
CFD Coupling established at step 14600
   14600        1  1.3038668e-11              0          0.001 
Loop time of 0.000216644 on 2 procs for 100 steps with 1 atoms, finish time Thu Jun 11 07:22:57 2020


Pair  time (%) = 2.05955e-05 (9.50661)
Neigh time (%) = 0 (0)
Comm  time (%) = 3.97975e-05 (18.37)
Outpt time (%) = 9.081e-06 (4.19167)
Other time (%) = 0.00014717 (67.9317)

Nlocal:    0.5 ave 1 max 0 min
Histogram: 1 0 0 0 0 0 0 0 0 1
Nghost:    0.5 ave 1 max 0 min
Histogram: 1 0 0 0 0 0 0 0 0 1
Neighs:    0 ave 0 max 0 min
Histogram: 2 0 0 0 0 0 0 0 0 0

Total # of neighbors = 0
Ave neighs/atom = 0
Neighbor list builds = 0
Dangerous builds = 0
write_restart ../DEM/post/restart/liggghts.restartCFDEM
run 100    
Setting up run at Thu Jun 11 07:22:57 2020

Memory usage per processor = 4.23812 Mbytes
    Step    Atoms         KinEng            rke         Volume 
   14600        1  1.3038668e-11              0          0.001 
CFD Coupling established at step 14700
   14700        1  1.3041206e-11              0          0.001 
Loop time of 0.000218314 on 2 procs for 100 steps with 1 atoms, finish time Thu Jun 11 07:22:57 2020


Pair  time (%) = 2.04685e-05 (9.37572)
Neigh time (%) = 0 (0)
Comm  time (%) = 3.961e-05 (18.1436)
Outpt time (%) = 9.4125e-06 (4.31145)
Other time (%) = 0.000148823 (68.1692)

Nlocal:    0.5 ave 1 max 0 min
Histogram: 1 0 0 0 0 0 0 0 0 1
Nghost:    0.5 ave 1 max 0 min
Histogram: 1 0 0 0 0 0 0 0 0 1
Neighs:    0 ave 0 max 0 min
Histogram: 2 0 0 0 0 0 0 0 0 0

Total # of neighbors = 0
Ave neighs/atom = 0
Neighbor list builds = 0
Dangerous builds = 0
write_restart ../DEM/post/restart/liggghts.restartCFDEM
run 100    
Setting up run at Thu Jun 11 07:22:57 2020

Memory usage per processor = 4.23812 Mbytes
    Step    Atoms         KinEng            rke         Volume 
   14700        1  1.3041206e-11              0          0.001 
CFD Coupling established at step 14800
   14800        1  1.3043925e-11              0          0.001 
Loop time of 0.000218004 on 2 procs for 100 steps with 1 atoms, finish time Thu Jun 11 07:22:57 2020


Pair  time (%) = 1.994e-05 (9.14662)
Neigh time (%) = 0 (0)
Comm  time (%) = 3.9595e-05 (18.1625)
Outpt time (%) = 9.1445e-06 (4.19465)
Other time (%) = 0.000149325 (68.4962)

Nlocal:    0.5 ave 1 max 0 min
Histogram: 1 0 0 0 0 0 0 0 0 1
Nghost:    0.5 ave 1 max 0 min
Histogram: 1 0 0 0 0 0 0 0 0 1
Neighs:    0 ave 0 max 0 min
Histogram: 2 0 0 0 0 0 0 0 0 0

Total # of neighbors = 0
Ave neighs/atom = 0
Neighbor list builds = 0
Dangerous builds = 0
write_restart ../DEM/post/restart/liggghts.restartCFDEM
run 100    
Setting up run at Thu Jun 11 07:22:57 2020

Memory usage per processor = 4.23812 Mbytes
    Step    Atoms         KinEng            rke         Volume 
   14800        1  1.3043925e-11              0          0.001 
CFD Coupling established at step 14900
   14900        1  1.3038822e-11              0          0.001 
Loop time of 0.00021575 on 2 procs for 100 steps with 1 atoms, finish time Thu Jun 11 07:22:57 2020


Pair  time (%) = 2.086e-05 (9.66862)
Neigh time (%) = 0 (0)
Comm  time (%) = 3.94025e-05 (18.2631)
Outpt time (%) = 7.8385e-06 (3.63315)
Other time (%) = 0.000147648 (68.4352)

Nlocal:    0.5 ave 1 max 0 min
Histogram: 1 0 0 0 0 0 0 0 0 1
Nghost:    0.5 ave 1 max 0 min
Histogram: 1 0 0 0 0 0 0 0 0 1
Neighs:    0 ave 0 max 0 min
Histogram: 2 0 0 0 0 0 0 0 0 0

Total # of neighbors = 0
Ave neighs/atom = 0
Neighbor list builds = 0
Dangerous builds = 0
write_restart ../DEM/post/restart/liggghts.restartCFDEM
run 100    
Setting up run at Thu Jun 11 07:22:57 2020

Memory usage per processor = 4.23812 Mbytes
    Step    Atoms         KinEng            rke         Volume 
   14900        1  1.3038822e-11              0          0.001 
CFD Coupling established at step 15000
   15000        1  1.3034798e-11              0          0.001 
Loop time of 0.000231409 on 2 procs for 100 steps with 1 atoms, finish time Thu Jun 11 07:22:57 2020


Pair  time (%) = 2.06595e-05 (8.9277)
Neigh time (%) = 0 (0)
Comm  time (%) = 4.03205e-05 (17.4239)
Outpt time (%) = 2.26395e-05 (9.78333)
Other time (%) = 0.000147789 (63.8651)

Nlocal:    0.5 ave 1 max 0 min
Histogram: 1 0 0 0 0 0 0 0 0 1
Nghost:    0.5 ave 1 max 0 min
Histogram: 1 0 0 0 0 0 0 0 0 1
Neighs:    0 ave 0 max 0 min
Histogram: 2 0 0 0 0 0 0 0 0 0

Total # of neighbors = 0
Ave neighs/atom = 0
Neighbor list builds = 0
Dangerous builds = 0
write_restart ../DEM/post/restart/liggghts.restartCFDEM
