thermo_log      ../DEM/post/thermo.txt

#######################################################
# variables                                           #
#######################################################
variable r0 equal 0.011
#######################################################

# read packed bed and calc convective heat transfer
atom_style      granular
atom_modify     map array
boundary        m m m
newton          off

communicate     single vel yes

units           si
processors      1 1 2

# read the restart file
read_restart    ../DEM/post/restart/liggghts.restart
WARNING: Restart file version does not match LIGGGHTS version (../read_restart.cpp:507)
  orthogonal box = (0 0 0) to (0.1 0.1 1.1)
  1 by 1 by 2 MPI processor grid
  1005 atoms

neighbor        ${r0} bin
neighbor        0.011 bin
neigh_modify    delay 0 binsize 0.01


# Material properties required for granular pair styles

fix         m1 all property/global youngsModulus peratomtype 5.e6
fix         m2 all property/global poissonsRatio peratomtype 0.45
fix         m3 all property/global coefficientRestitution peratomtypepair 1 0.3
fix         m4 all property/global coefficientFriction peratomtypepair 1 0.5

# pair style
pair_style  gran model hertz tangential history
pair_coeff  * *

# timestep, gravity
timestep    0.00001
fix         gravi all gravity 9.81 vector 0. 0. -1.

# walls
fix     xwalls1 all wall/gran model hertz tangential history primitive type 1 xplane 0.0
Resetting global state of Fix history_xwalls1 Style property/atom from restart file info
Resetting per-atom state of Fix history_xwalls1 Style property/atom from restart file info
fix     xwalls2 all wall/gran model hertz tangential history primitive type 1 xplane 0.1
Resetting global state of Fix history_xwalls2 Style property/atom from restart file info
Resetting per-atom state of Fix history_xwalls2 Style property/atom from restart file info
fix     ywalls1 all wall/gran model hertz tangential history primitive type 1 yplane 0.0
Resetting global state of Fix history_ywalls1 Style property/atom from restart file info
Resetting per-atom state of Fix history_ywalls1 Style property/atom from restart file info
fix     ywalls2 all wall/gran model hertz tangential history primitive type 1 yplane 0.1
Resetting global state of Fix history_ywalls2 Style property/atom from restart file info
Resetting per-atom state of Fix history_ywalls2 Style property/atom from restart file info
fix     zwalls1 all wall/gran model hertz tangential history primitive type 1 zplane 0.0
Resetting global state of Fix history_zwalls1 Style property/atom from restart file info
Resetting per-atom state of Fix history_zwalls1 Style property/atom from restart file info
fix     zwalls2 all wall/gran model hertz tangential history primitive type 1 zplane 1.1
Resetting global state of Fix history_zwalls2 Style property/atom from restart file info
Resetting per-atom state of Fix history_zwalls2 Style property/atom from restart file info

# cfd coupling
fix         cfd all couple/cfd couple_every 100 mpi
couple_every as specified in LIGGGHTS is overriden by calling external program (../fix_cfd_coupling.cpp:114)
fix         cfd2 all couple/cfd/force


# heat transfer
fix         ftco all property/global thermalConductivity peratomtype 5. # lambda in [W/(K*m)]
fix         ftca all property/global thermalCapacity peratomtype 0.1    # cp in [J/(kg*K)]
fix         cfd3 all couple/cfd/convection T0 600
Resetting global state of Fix Temp Style property/atom from restart file info
Resetting per-atom state of Fix Temp Style property/atom from restart file info
Resetting global state of Fix heatFlux Style property/atom from restart file info
Resetting per-atom state of Fix heatFlux Style property/atom from restart file info
Resetting global state of Fix heatSource Style property/atom from restart file info
Resetting per-atom state of Fix heatSource Style property/atom from restart file info
fix         heattransfer all heat/gran initial_temperature 600.

# set particle temperature for the bed
run         0
Resetting global state of Fix contacthistory Style contacthistory from restart file info
Resetting per-atom state of Fix contacthistory Style contacthistory from restart file info
Setting up run at Tue Oct  9 09:28:28 2018

Memory usage per processor = 9.13458 Mbytes
    Step    Atoms         KinEng            CPU         Volume 
  150001     1005  2.3338009e-06              0          0.011 
Loop time of 2.48151e-06 on 2 procs for 0 steps with 1005 atoms, finish time Tue Oct  9 09:28:28 2018


Pair  time (%) = 0 (0)
Neigh time (%) = 0 (0)
Comm  time (%) = 0 (0)
Outpt time (%) = 0 (0)
Other time (%) = 2.48151e-06 (100)

Nlocal:    502.5 ave 547 max 458 min
Histogram: 1 0 0 0 0 0 0 0 0 1
Nghost:    32 ave 34 max 30 min
Histogram: 1 0 0 0 0 0 0 0 0 1
Neighs:    2842 ave 3107 max 2577 min
Histogram: 1 0 0 0 0 0 0 0 0 1

Total # of neighbors = 5684
Ave neighs/atom = 5.65572
Neighbor list builds = 0
Dangerous builds = 0
region      total block INF INF INF INF INF INF units box
set         region total property/atom Temp 600.
  1005 settings made for property/atom

# apply nve integration to all particles that are inserted as single particles
fix         integr all nve/sphere

# output settings, include total thermal energy
compute         rke all erotate/sphere
thermo_style    custom step atoms ke c_rke f_heattransfer vol
thermo          1000
thermo_modify   lost ignore norm no
compute_modify  thermo_temp dynamic yes
WARNING: Changing thermo_temp compute object. This object is deprecated and will be removed in the future. (../compute.cpp:161)

dump        dmp all custom 20000 ../DEM/post/dump*.liggghts_run id type x y z ix iy iz vx vy vz fx fy fz omegax omegay omegaz radius f_Temp[0] f_heatFlux[0]

run         0
Setting up run at Tue Oct  9 09:28:28 2018

Memory usage per processor = 9.13486 Mbytes
    Step    Atoms         KinEng            rke       heattran         Volume 
  150001     1005  2.3338009e-06    5.06343e-06      840.47342          0.011 
Loop time of 8.05536e-07 on 2 procs for 0 steps with 1005 atoms, finish time Tue Oct  9 09:28:28 2018


Pair  time (%) = 0 (0)
Neigh time (%) = 0 (0)
Comm  time (%) = 0 (0)
Outpt time (%) = 0 (0)
Other time (%) = 8.05536e-07 (100)

Nlocal:    502.5 ave 547 max 458 min
Histogram: 1 0 0 0 0 0 0 0 0 1
Nghost:    32 ave 34 max 30 min
Histogram: 1 0 0 0 0 0 0 0 0 1
Neighs:    2842 ave 3107 max 2577 min
Histogram: 1 0 0 0 0 0 0 0 0 1

Total # of neighbors = 5684
Ave neighs/atom = 5.65572
Neighbor list builds = 0
Dangerous builds = 0
run 500    
Setting up run at Tue Oct  9 09:28:28 2018

Memory usage per processor = 9.13486 Mbytes
    Step    Atoms         KinEng            rke       heattran         Volume 
  150001     1005  2.3338009e-06    5.06343e-06      840.47342          0.011 
CFD Coupling established at step 150100
CFD Coupling established at step 150200
CFD Coupling established at step 150300
CFD Coupling established at step 150400
CFD Coupling established at step 150500
  150501     1005  2.4508543e-06  5.7530481e-06      840.47342          0.011 
Loop time of 0.144432 on 2 procs for 500 steps with 1005 atoms, finish time Tue Oct  9 09:28:28 2018


Pair  time (%) = 0.0772062 (53.4551)
Neigh time (%) = 0 (0)
Comm  time (%) = 0.0182177 (12.6134)
Outpt time (%) = 2.79304e-05 (0.0193381)
Other time (%) = 0.04898 (33.9122)

Nlocal:    502.5 ave 547 max 458 min
Histogram: 1 0 0 0 0 0 0 0 0 1
Nghost:    32 ave 34 max 30 min
Histogram: 1 0 0 0 0 0 0 0 0 1
Neighs:    2842 ave 3107 max 2577 min
Histogram: 1 0 0 0 0 0 0 0 0 1

Total # of neighbors = 5684
Ave neighs/atom = 5.65572
Neighbor list builds = 0
Dangerous builds = 0
set region total property/atom Temp 600.000000 
  1005 settings made for property/atom
run 500    
Setting up run at Tue Oct  9 09:28:28 2018

Memory usage per processor = 9.13486 Mbytes
    Step    Atoms         KinEng            rke       heattran         Volume 
  150501     1005  2.4508543e-06  5.7530481e-06      840.47342          0.011 
CFD Coupling established at step 150600
CFD Coupling established at step 150700
CFD Coupling established at step 150800
CFD Coupling established at step 150900
CFD Coupling established at step 151000
  151000     1005  1.5470023e-06  5.4809678e-06      834.43112          0.011 
  151001     1005  1.5455309e-06  5.4812829e-06      834.41902          0.011 
Loop time of 0.140167 on 2 procs for 500 steps with 1005 atoms, finish time Tue Oct  9 09:28:29 2018


Pair  time (%) = 0.0754086 (53.799)
Neigh time (%) = 0 (0)
Comm  time (%) = 0.0168277 (12.0054)
Outpt time (%) = 3.9207e-05 (0.0279716)
Other time (%) = 0.0478917 (34.1676)

Nlocal:    502.5 ave 547 max 458 min
Histogram: 1 0 0 0 0 0 0 0 0 1
Nghost:    32 ave 34 max 30 min
Histogram: 1 0 0 0 0 0 0 0 0 1
Neighs:    2841.5 ave 3107 max 2576 min
Histogram: 1 0 0 0 0 0 0 0 0 1

Total # of neighbors = 5683
Ave neighs/atom = 5.65473
Neighbor list builds = 0
Dangerous builds = 0
set region total property/atom Temp 600.000000 
  1005 settings made for property/atom
run 500    
Setting up run at Tue Oct  9 09:28:29 2018

Memory usage per processor = 9.13486 Mbytes
    Step    Atoms         KinEng            rke       heattran         Volume 
  151001     1005  1.5455309e-06  5.4812829e-06      840.47342          0.011 
CFD Coupling established at step 151100
CFD Coupling established at step 151200
CFD Coupling established at step 151300
CFD Coupling established at step 151400
CFD Coupling established at step 151500
  151501     1005  0.00010518122   1.575762e-05       831.7114          0.011 
Loop time of 0.142321 on 2 procs for 500 steps with 1005 atoms, finish time Tue Oct  9 09:28:29 2018


Pair  time (%) = 0.0766384 (53.849)
Neigh time (%) = 0 (0)
Comm  time (%) = 0.0174372 (12.252)
Outpt time (%) = 2.17945e-05 (0.0153137)
Other time (%) = 0.0482234 (33.8836)

Nlocal:    502.5 ave 547 max 458 min
Histogram: 1 0 0 0 0 0 0 0 0 1
Nghost:    32 ave 34 max 30 min
Histogram: 1 0 0 0 0 0 0 0 0 1
Neighs:    2841.5 ave 3107 max 2576 min
Histogram: 1 0 0 0 0 0 0 0 0 1

Total # of neighbors = 5683
Ave neighs/atom = 5.65473
Neighbor list builds = 0
Dangerous builds = 0
set region total property/atom Temp 600.000000 
  1005 settings made for property/atom
run 500    
Setting up run at Tue Oct  9 09:28:29 2018

Memory usage per processor = 9.13486 Mbytes
    Step    Atoms         KinEng            rke       heattran         Volume 
  151501     1005  0.00010518122   1.575762e-05      840.47342          0.011 
CFD Coupling established at step 151600
CFD Coupling established at step 151700
CFD Coupling established at step 151800
CFD Coupling established at step 151900
CFD Coupling established at step 152000
  152000     1005  3.2697697e-05  1.5180735e-05      831.76741          0.011 
  152001     1005  3.2589938e-05  1.5164458e-05      831.74996          0.011 
Loop time of 0.141225 on 2 procs for 500 steps with 1005 atoms, finish time Tue Oct  9 09:28:29 2018


Pair  time (%) = 0.0760805 (53.8718)
Neigh time (%) = 0 (0)
Comm  time (%) = 0.0168895 (11.9593)
Outpt time (%) = 3.93359e-05 (0.0278534)
Other time (%) = 0.0482158 (34.1411)

Nlocal:    502.5 ave 547 max 458 min
Histogram: 1 0 0 0 0 0 0 0 0 1
Nghost:    32 ave 34 max 30 min
Histogram: 1 0 0 0 0 0 0 0 0 1
Neighs:    2841 ave 3106 max 2576 min
Histogram: 1 0 0 0 0 0 0 0 0 1

Total # of neighbors = 5682
Ave neighs/atom = 5.65373
Neighbor list builds = 0
Dangerous builds = 0
set region total property/atom Temp 600.000000 
  1005 settings made for property/atom
run 500    
Setting up run at Tue Oct  9 09:28:29 2018

Memory usage per processor = 9.13486 Mbytes
    Step    Atoms         KinEng            rke       heattran         Volume 
  152001     1005  3.2589938e-05  1.5164458e-05      840.47342          0.011 
CFD Coupling established at step 152100
CFD Coupling established at step 152200
CFD Coupling established at step 152300
CFD Coupling established at step 152400
CFD Coupling established at step 152500
  152501     1005  2.9214535e-05  1.2311021e-05      831.78776          0.011 
Loop time of 0.142879 on 2 procs for 500 steps with 1005 atoms, finish time Tue Oct  9 09:28:29 2018


Pair  time (%) = 0.0768497 (53.7866)
Neigh time (%) = 0 (0)
Comm  time (%) = 0.0176207 (12.3326)
Outpt time (%) = 2.07915e-05 (0.0145518)
Other time (%) = 0.0483876 (33.8662)

Nlocal:    502.5 ave 546 max 459 min
Histogram: 1 0 0 0 0 0 0 0 0 1
Nghost:    32 ave 33 max 31 min
Histogram: 1 0 0 0 0 0 0 0 0 1
Neighs:    2841.5 ave 3099 max 2584 min
Histogram: 1 0 0 0 0 0 0 0 0 1

Total # of neighbors = 5683
Ave neighs/atom = 5.65473
Neighbor list builds = 0
Dangerous builds = 0
set region total property/atom Temp 600.000000 
  1005 settings made for property/atom
run 500    
Setting up run at Tue Oct  9 09:28:29 2018

Memory usage per processor = 9.13486 Mbytes
    Step    Atoms         KinEng            rke       heattran         Volume 
  152501     1005  2.9214535e-05  1.2311021e-05      840.47342          0.011 
CFD Coupling established at step 152600
CFD Coupling established at step 152700
CFD Coupling established at step 152800
CFD Coupling established at step 152900
CFD Coupling established at step 153000
  153000     1005  2.0328198e-05  1.3462895e-05      831.84186          0.011 
  153001     1005  2.0315796e-05  1.3463039e-05      831.82456          0.011 
Loop time of 0.141133 on 2 procs for 500 steps with 1005 atoms, finish time Tue Oct  9 09:28:29 2018


Pair  time (%) = 0.0759553 (53.8184)
Neigh time (%) = 0 (0)
Comm  time (%) = 0.0169349 (11.9993)
Outpt time (%) = 4.4409e-05 (0.0314661)
Other time (%) = 0.048198 (34.1509)

Nlocal:    502.5 ave 546 max 459 min
Histogram: 1 0 0 0 0 0 0 0 0 1
Nghost:    32 ave 33 max 31 min
Histogram: 1 0 0 0 0 0 0 0 0 1
Neighs:    2841 ave 3099 max 2583 min
Histogram: 1 0 0 0 0 0 0 0 0 1

Total # of neighbors = 5682
Ave neighs/atom = 5.65373
Neighbor list builds = 0
Dangerous builds = 0
set region total property/atom Temp 600.000000 
  1005 settings made for property/atom
run 500    
Setting up run at Tue Oct  9 09:28:29 2018

Memory usage per processor = 9.13486 Mbytes
    Step    Atoms         KinEng            rke       heattran         Volume 
  153001     1005  2.0315796e-05  1.3463039e-05      840.47342          0.011 
CFD Coupling established at step 153100
CFD Coupling established at step 153200
CFD Coupling established at step 153300
CFD Coupling established at step 153400
CFD Coupling established at step 153500
  153501     1005  1.9910497e-05   1.300739e-05      831.86352          0.011 
Loop time of 0.142883 on 2 procs for 500 steps with 1005 atoms, finish time Tue Oct  9 09:28:29 2018


Pair  time (%) = 0.0759291 (53.1406)
Neigh time (%) = 0 (0)
Comm  time (%) = 0.0189386 (13.2546)
Outpt time (%) = 2.8697e-05 (0.0200842)
Other time (%) = 0.0479869 (33.5847)

Nlocal:    502.5 ave 547 max 458 min
Histogram: 1 0 0 0 0 0 0 0 0 1
Nghost:    32 ave 34 max 30 min
Histogram: 1 0 0 0 0 0 0 0 0 1
Neighs:    2841.5 ave 3107 max 2576 min
Histogram: 1 0 0 0 0 0 0 0 0 1

Total # of neighbors = 5683
Ave neighs/atom = 5.65473
Neighbor list builds = 0
Dangerous builds = 0
set region total property/atom Temp 600.000000 
  1005 settings made for property/atom
run 500    
Setting up run at Tue Oct  9 09:28:29 2018

Memory usage per processor = 9.13486 Mbytes
    Step    Atoms         KinEng            rke       heattran         Volume 
  153501     1005  1.9910497e-05   1.300739e-05      840.47342          0.011 
CFD Coupling established at step 153600
CFD Coupling established at step 153700
CFD Coupling established at step 153800
CFD Coupling established at step 153900
CFD Coupling established at step 154000
  154000     1005  8.9503294e-06  1.1338356e-05      831.91865          0.011 
  154001     1005  8.9394206e-06  1.1336444e-05      831.90151          0.011 
Loop time of 0.136819 on 2 procs for 500 steps with 1005 atoms, finish time Tue Oct  9 09:28:30 2018


Pair  time (%) = 0.0739883 (54.0774)
Neigh time (%) = 0 (0)
Comm  time (%) = 0.0157867 (11.5384)
Outpt time (%) = 4.6337e-05 (0.0338673)
Other time (%) = 0.046998 (34.3504)

Nlocal:    502.5 ave 547 max 458 min
Histogram: 1 0 0 0 0 0 0 0 0 1
Nghost:    32 ave 34 max 30 min
Histogram: 1 0 0 0 0 0 0 0 0 1
Neighs:    2841.5 ave 3106 max 2577 min
Histogram: 1 0 0 0 0 0 0 0 0 1

Total # of neighbors = 5683
Ave neighs/atom = 5.65473
Neighbor list builds = 0
Dangerous builds = 0
set region total property/atom Temp 600.000000 
  1005 settings made for property/atom
run 500    
Setting up run at Tue Oct  9 09:28:30 2018

Memory usage per processor = 9.13486 Mbytes
    Step    Atoms         KinEng            rke       heattran         Volume 
  154001     1005  8.9394206e-06  1.1336444e-05      840.47342          0.011 
CFD Coupling established at step 154100
CFD Coupling established at step 154200
CFD Coupling established at step 154300
CFD Coupling established at step 154400
CFD Coupling established at step 154500
  154501     1005  1.1289703e-05  1.1892169e-05      831.93877          0.011 
Loop time of 0.139866 on 2 procs for 500 steps with 1005 atoms, finish time Tue Oct  9 09:28:30 2018


Pair  time (%) = 0.07502 (53.6368)
Neigh time (%) = 0 (0)
Comm  time (%) = 0.0172328 (12.3209)
Outpt time (%) = 1.99046e-05 (0.0142311)
Other time (%) = 0.0475938 (34.028)

Nlocal:    502.5 ave 546 max 459 min
Histogram: 1 0 0 0 0 0 0 0 0 1
Nghost:    32 ave 33 max 31 min
Histogram: 1 0 0 0 0 0 0 0 0 1
Neighs:    2841.5 ave 3099 max 2584 min
Histogram: 1 0 0 0 0 0 0 0 0 1

Total # of neighbors = 5683
Ave neighs/atom = 5.65473
Neighbor list builds = 0
Dangerous builds = 0
set region total property/atom Temp 600.000000 
  1005 settings made for property/atom
run 500    
Setting up run at Tue Oct  9 09:28:30 2018

Memory usage per processor = 9.13486 Mbytes
    Step    Atoms         KinEng            rke       heattran         Volume 
  154501     1005  1.1289703e-05  1.1892169e-05      840.47342          0.011 
CFD Coupling established at step 154600
CFD Coupling established at step 154700
CFD Coupling established at step 154800
CFD Coupling established at step 154900
CFD Coupling established at step 155000
  155000     1005  7.2821819e-06  1.1500122e-05      831.99216          0.011 
  155001     1005  7.2701279e-06  1.1496405e-05      831.97517          0.011 
Loop time of 0.137338 on 2 procs for 500 steps with 1005 atoms, finish time Tue Oct  9 09:28:30 2018


Pair  time (%) = 0.074297 (54.098)
Neigh time (%) = 0 (0)
Comm  time (%) = 0.015762 (11.4768)
Outpt time (%) = 4.01681e-05 (0.0292476)
Other time (%) = 0.0472386 (34.3959)

Nlocal:    502.5 ave 546 max 459 min
Histogram: 1 0 0 0 0 0 0 0 0 1
Nghost:    32 ave 33 max 31 min
Histogram: 1 0 0 0 0 0 0 0 0 1
Neighs:    2841.5 ave 3099 max 2584 min
Histogram: 1 0 0 0 0 0 0 0 0 1

Total # of neighbors = 5683
Ave neighs/atom = 5.65473
Neighbor list builds = 0
Dangerous builds = 0
set region total property/atom Temp 600.000000 
  1005 settings made for property/atom
run 500    
Setting up run at Tue Oct  9 09:28:30 2018

Memory usage per processor = 9.13486 Mbytes
    Step    Atoms         KinEng            rke       heattran         Volume 
  155001     1005  7.2701279e-06  1.1496405e-05      840.47342          0.011 
CFD Coupling established at step 155100
CFD Coupling established at step 155200
CFD Coupling established at step 155300
CFD Coupling established at step 155400
CFD Coupling established at step 155500
  155501     1005  5.6951783e-06  1.0357174e-05      832.01115          0.011 
Loop time of 0.14661 on 2 procs for 500 steps with 1005 atoms, finish time Tue Oct  9 09:28:30 2018


Pair  time (%) = 0.0771141 (52.5981)
Neigh time (%) = 0 (0)
Comm  time (%) = 0.0209398 (14.2826)
Outpt time (%) = 2.01575e-05 (0.0137491)
Other time (%) = 0.0485361 (33.1056)

Nlocal:    502.5 ave 547 max 458 min
Histogram: 1 0 0 0 0 0 0 0 0 1
Nghost:    32 ave 34 max 30 min
Histogram: 1 0 0 0 0 0 0 0 0 1
Neighs:    2841 ave 3106 max 2576 min
Histogram: 1 0 0 0 0 0 0 0 0 1

Total # of neighbors = 5682
Ave neighs/atom = 5.65373
Neighbor list builds = 0
Dangerous builds = 0
set region total property/atom Temp 600.000000 
  1005 settings made for property/atom
run 500    
Setting up run at Tue Oct  9 09:28:30 2018

Memory usage per processor = 9.13486 Mbytes
    Step    Atoms         KinEng            rke       heattran         Volume 
  155501     1005  5.6951783e-06  1.0357174e-05      840.47342          0.011 
CFD Coupling established at step 155600
CFD Coupling established at step 155700
CFD Coupling established at step 155800
CFD Coupling established at step 155900
CFD Coupling established at step 156000
  156000     1005  5.3762655e-06  1.0953895e-05      832.06325          0.011 
  156001     1005  5.3715647e-06  1.0953704e-05      832.04639          0.011 
Loop time of 0.142903 on 2 procs for 500 steps with 1005 atoms, finish time Tue Oct  9 09:28:30 2018


Pair  time (%) = 0.0757717 (53.0232)
Neigh time (%) = 0 (0)
Comm  time (%) = 0.0189895 (13.2884)
Outpt time (%) = 4.07375e-05 (0.0285071)
Other time (%) = 0.048101 (33.6599)

Nlocal:    502.5 ave 547 max 458 min
Histogram: 1 0 0 0 0 0 0 0 0 1
Nghost:    32 ave 34 max 30 min
Histogram: 1 0 0 0 0 0 0 0 0 1
Neighs:    2840.5 ave 3106 max 2575 min
Histogram: 1 0 0 0 0 0 0 0 0 1

Total # of neighbors = 5681
Ave neighs/atom = 5.65274
Neighbor list builds = 0
Dangerous builds = 0
set region total property/atom Temp 600.000000 
  1005 settings made for property/atom
run 500    
Setting up run at Tue Oct  9 09:28:30 2018

Memory usage per processor = 9.13486 Mbytes
    Step    Atoms         KinEng            rke       heattran         Volume 
  156001     1005  5.3715647e-06  1.0953704e-05      840.47342          0.011 
CFD Coupling established at step 156100
CFD Coupling established at step 156200
CFD Coupling established at step 156300
CFD Coupling established at step 156400
CFD Coupling established at step 156500
  156501     1005  3.7372587e-06  1.0272653e-05      832.08105          0.011 
Loop time of 0.135159 on 2 procs for 500 steps with 1005 atoms, finish time Tue Oct  9 09:28:30 2018


Pair  time (%) = 0.0738395 (54.6317)
Neigh time (%) = 0 (0)
Comm  time (%) = 0.0146089 (10.8087)
Outpt time (%) = 1.98956e-05 (0.0147202)
Other time (%) = 0.0466903 (34.5449)

Nlocal:    502.5 ave 546 max 459 min
Histogram: 1 0 0 0 0 0 0 0 0 1
Nghost:    32 ave 33 max 31 min
Histogram: 1 0 0 0 0 0 0 0 0 1
Neighs:    2841.5 ave 3099 max 2584 min
Histogram: 1 0 0 0 0 0 0 0 0 1

Total # of neighbors = 5683
Ave neighs/atom = 5.65473
Neighbor list builds = 0
Dangerous builds = 0
set region total property/atom Temp 600.000000 
  1005 settings made for property/atom
run 500    
Setting up run at Tue Oct  9 09:28:30 2018

Memory usage per processor = 9.13486 Mbytes
    Step    Atoms         KinEng            rke       heattran         Volume 
  156501     1005  3.7372587e-06  1.0272653e-05      840.47342          0.011 
CFD Coupling established at step 156600
CFD Coupling established at step 156700
CFD Coupling established at step 156800
CFD Coupling established at step 156900
CFD Coupling established at step 157000
  157000     1005  4.0732083e-06  1.0424163e-05      832.13188          0.011 
  157001     1005  4.0730611e-06  1.0424691e-05      832.11517          0.011 
Loop time of 0.135153 on 2 procs for 500 steps with 1005 atoms, finish time Tue Oct  9 09:28:30 2018


Pair  time (%) = 0.0739596 (54.723)
Neigh time (%) = 0 (0)
Comm  time (%) = 0.0144135 (10.6646)
Outpt time (%) = 4.6228e-05 (0.0342042)
Other time (%) = 0.0467335 (34.5783)

Nlocal:    502.5 ave 546 max 459 min
Histogram: 1 0 0 0 0 0 0 0 0 1
Nghost:    32 ave 33 max 31 min
Histogram: 1 0 0 0 0 0 0 0 0 1
Neighs:    2841.5 ave 3099 max 2584 min
Histogram: 1 0 0 0 0 0 0 0 0 1

Total # of neighbors = 5683
Ave neighs/atom = 5.65473
Neighbor list builds = 0
Dangerous builds = 0
set region total property/atom Temp 600.000000 
  1005 settings made for property/atom
run 500    
Setting up run at Tue Oct  9 09:28:30 2018

Memory usage per processor = 9.13486 Mbytes
    Step    Atoms         KinEng            rke       heattran         Volume 
  157001     1005  4.0730611e-06  1.0424691e-05      840.47342          0.011 
CFD Coupling established at step 157100
CFD Coupling established at step 157200
CFD Coupling established at step 157300
CFD Coupling established at step 157400
CFD Coupling established at step 157500
  157501     1005  3.1668714e-06  1.0095695e-05      832.14896          0.011 
Loop time of 0.135913 on 2 procs for 500 steps with 1005 atoms, finish time Tue Oct  9 09:28:31 2018


Pair  time (%) = 0.0735894 (54.1445)
Neigh time (%) = 0 (0)
Comm  time (%) = 0.0155022 (11.406)
Outpt time (%) = 1.99386e-05 (0.0146701)
Other time (%) = 0.0468015 (34.4349)

Nlocal:    502.5 ave 546 max 459 min
Histogram: 1 0 0 0 0 0 0 0 0 1
Nghost:    32 ave 33 max 31 min
Histogram: 1 0 0 0 0 0 0 0 0 1
Neighs:    2841.5 ave 3099 max 2584 min
Histogram: 1 0 0 0 0 0 0 0 0 1

Total # of neighbors = 5683
Ave neighs/atom = 5.65473
Neighbor list builds = 0
Dangerous builds = 0
set region total property/atom Temp 600.000000 
  1005 settings made for property/atom
run 500    
Setting up run at Tue Oct  9 09:28:31 2018

Memory usage per processor = 9.13486 Mbytes
    Step    Atoms         KinEng            rke       heattran         Volume 
  157501     1005  3.1668714e-06  1.0095695e-05      840.47342          0.011 
CFD Coupling established at step 157600
CFD Coupling established at step 157700
CFD Coupling established at step 157800
CFD Coupling established at step 157900
CFD Coupling established at step 158000
  158000     1005  2.4610292e-06  9.6114697e-06      832.19881          0.011 
  158001     1005  2.4608792e-06  9.6113112e-06      832.18222          0.011 
Loop time of 0.137336 on 2 procs for 500 steps with 1005 atoms, finish time Tue Oct  9 09:28:31 2018


Pair  time (%) = 0.0744012 (54.1746)
Neigh time (%) = 0 (0)
Comm  time (%) = 0.0158771 (11.5608)
Outpt time (%) = 3.86021e-05 (0.0281078)
Other time (%) = 0.047019 (34.2365)

Nlocal:    502.5 ave 547 max 458 min
Histogram: 1 0 0 0 0 0 0 0 0 1
Nghost:    32 ave 34 max 30 min
Histogram: 1 0 0 0 0 0 0 0 0 1
Neighs:    2841 ave 3106 max 2576 min
Histogram: 1 0 0 0 0 0 0 0 0 1

Total # of neighbors = 5682
Ave neighs/atom = 5.65373
Neighbor list builds = 0
Dangerous builds = 0
set region total property/atom Temp 600.000000 
  1005 settings made for property/atom
run 500    
Setting up run at Tue Oct  9 09:28:31 2018

Memory usage per processor = 9.13486 Mbytes
    Step    Atoms         KinEng            rke       heattran         Volume 
  158001     1005  2.4608792e-06  9.6113112e-06      840.47342          0.011 
CFD Coupling established at step 158100
CFD Coupling established at step 158200
CFD Coupling established at step 158300
CFD Coupling established at step 158400
CFD Coupling established at step 158500
  158501     1005  2.6493825e-06  9.6531901e-06      832.21503          0.011 
Loop time of 0.136731 on 2 procs for 500 steps with 1005 atoms, finish time Tue Oct  9 09:28:31 2018


Pair  time (%) = 0.0738404 (54.004)
Neigh time (%) = 0 (0)
Comm  time (%) = 0.0159158 (11.6402)
Outpt time (%) = 2.6119e-05 (0.0191024)
Other time (%) = 0.046949 (34.3367)

Nlocal:    502.5 ave 546 max 459 min
Histogram: 1 0 0 0 0 0 0 0 0 1
Nghost:    32 ave 33 max 31 min
Histogram: 1 0 0 0 0 0 0 0 0 1
Neighs:    2841.5 ave 3099 max 2584 min
Histogram: 1 0 0 0 0 0 0 0 0 1

Total # of neighbors = 5683
Ave neighs/atom = 5.65473
Neighbor list builds = 0
Dangerous builds = 0
set region total property/atom Temp 600.000000 
  1005 settings made for property/atom
run 500    
Setting up run at Tue Oct  9 09:28:31 2018

Memory usage per processor = 9.13486 Mbytes
    Step    Atoms         KinEng            rke       heattran         Volume 
  158501     1005  2.6493825e-06  9.6531901e-06      840.47342          0.011 
CFD Coupling established at step 158600
CFD Coupling established at step 158700
CFD Coupling established at step 158800
CFD Coupling established at step 158900
CFD Coupling established at step 159000
  159000     1005  2.5415558e-06  9.5014931e-06      832.26356          0.011 
  159001     1005  2.5408059e-06  9.5009913e-06      832.24711          0.011 
Loop time of 0.13649 on 2 procs for 500 steps with 1005 atoms, finish time Tue Oct  9 09:28:31 2018


Pair  time (%) = 0.0744228 (54.5263)
Neigh time (%) = 0 (0)
Comm  time (%) = 0.014948 (10.9518)
Outpt time (%) = 4.05799e-05 (0.0297312)
Other time (%) = 0.0470782 (34.4922)

Nlocal:    502.5 ave 546 max 459 min
Histogram: 1 0 0 0 0 0 0 0 0 1
Nghost:    32 ave 33 max 31 min
Histogram: 1 0 0 0 0 0 0 0 0 1
Neighs:    2842 ave 3099 max 2585 min
Histogram: 1 0 0 0 0 0 0 0 0 1

Total # of neighbors = 5684
Ave neighs/atom = 5.65572
Neighbor list builds = 0
Dangerous builds = 0
set region total property/atom Temp 600.000000 
  1005 settings made for property/atom
run 500    
Setting up run at Tue Oct  9 09:28:31 2018

Memory usage per processor = 9.13486 Mbytes
    Step    Atoms         KinEng            rke       heattran         Volume 
  159001     1005  2.5408059e-06  9.5009913e-06      840.47342          0.011 
CFD Coupling established at step 159100
CFD Coupling established at step 159200
CFD Coupling established at step 159300
CFD Coupling established at step 159400
CFD Coupling established at step 159500
  159501     1005   2.130045e-06  9.1358036e-06      832.27862          0.011 
Loop time of 0.141427 on 2 procs for 500 steps with 1005 atoms, finish time Tue Oct  9 09:28:31 2018


Pair  time (%) = 0.0753876 (53.3051)
Neigh time (%) = 0 (0)
Comm  time (%) = 0.0181344 (12.8225)
Outpt time (%) = 2.15375e-05 (0.0152288)
Other time (%) = 0.047883 (33.8572)

Nlocal:    502.5 ave 546 max 459 min
Histogram: 1 0 0 0 0 0 0 0 0 1
Nghost:    32 ave 33 max 31 min
Histogram: 1 0 0 0 0 0 0 0 0 1
Neighs:    2842 ave 3099 max 2585 min
Histogram: 1 0 0 0 0 0 0 0 0 1

Total # of neighbors = 5684
Ave neighs/atom = 5.65572
Neighbor list builds = 0
Dangerous builds = 0
set region total property/atom Temp 600.000000 
  1005 settings made for property/atom
run 500    
Setting up run at Tue Oct  9 09:28:31 2018

Memory usage per processor = 9.13486 Mbytes
    Step    Atoms         KinEng            rke       heattran         Volume 
  159501     1005   2.130045e-06  9.1358036e-06      840.47342          0.011 
CFD Coupling established at step 159600
CFD Coupling established at step 159700
CFD Coupling established at step 159800
CFD Coupling established at step 159900
CFD Coupling established at step 160000
  160000     1005  1.9360822e-06  8.6956059e-06      832.32606          0.011 
  160001     1005  1.9358297e-06  8.6948874e-06      832.30974          0.011 
Loop time of 0.137553 on 2 procs for 500 steps with 1005 atoms, finish time Tue Oct  9 09:28:31 2018


Pair  time (%) = 0.0734929 (53.4287)
Neigh time (%) = 0 (0)
Comm  time (%) = 0.0146456 (10.6473)
Outpt time (%) = 0.00264635 (1.92388)
Other time (%) = 0.0467682 (34.0001)

Nlocal:    502.5 ave 546 max 459 min
Histogram: 1 0 0 0 0 0 0 0 0 1
Nghost:    32 ave 33 max 31 min
Histogram: 1 0 0 0 0 0 0 0 0 1
Neighs:    2841.5 ave 3099 max 2584 min
Histogram: 1 0 0 0 0 0 0 0 0 1

Total # of neighbors = 5683
Ave neighs/atom = 5.65473
Neighbor list builds = 0
Dangerous builds = 0
set region total property/atom Temp 600.000000 
  1005 settings made for property/atom
run 500    
Setting up run at Tue Oct  9 09:28:31 2018

Memory usage per processor = 10.3792 Mbytes
    Step    Atoms         KinEng            rke       heattran         Volume 
  160001     1005  1.9358297e-06  8.6948874e-06      840.47342          0.011 
CFD Coupling established at step 160100
CFD Coupling established at step 160200
CFD Coupling established at step 160300
CFD Coupling established at step 160400
CFD Coupling established at step 160500
  160501     1005  1.8052196e-06  8.4072198e-06      832.34023          0.011 
Loop time of 0.136434 on 2 procs for 500 steps with 1005 atoms, finish time Tue Oct  9 09:28:31 2018


Pair  time (%) = 0.0742769 (54.4415)
Neigh time (%) = 0 (0)
Comm  time (%) = 0.0152852 (11.2033)
Outpt time (%) = 2.14956e-05 (0.0157552)
Other time (%) = 0.0468508 (34.3394)

Nlocal:    502.5 ave 546 max 459 min
Histogram: 1 0 0 0 0 0 0 0 0 1
Nghost:    32 ave 33 max 31 min
Histogram: 1 0 0 0 0 0 0 0 0 1
Neighs:    2841.5 ave 3099 max 2584 min
Histogram: 1 0 0 0 0 0 0 0 0 1

Total # of neighbors = 5683
Ave neighs/atom = 5.65473
Neighbor list builds = 0
Dangerous builds = 0
set region total property/atom Temp 600.000000 
  1005 settings made for property/atom
run 500    
Setting up run at Tue Oct  9 09:28:31 2018

Memory usage per processor = 10.3792 Mbytes
    Step    Atoms         KinEng            rke       heattran         Volume 
  160501     1005  1.8052196e-06  8.4072198e-06      840.47342          0.011 
CFD Coupling established at step 160600
CFD Coupling established at step 160700
CFD Coupling established at step 160800
CFD Coupling established at step 160900
CFD Coupling established at step 161000
  161000     1005  1.8490749e-06  8.1415588e-06      832.38636          0.011 
  161001     1005  1.8494898e-06  8.1408076e-06      832.37015          0.011 
Loop time of 0.134365 on 2 procs for 500 steps with 1005 atoms, finish time Tue Oct  9 09:28:32 2018


Pair  time (%) = 0.0734716 (54.6806)
Neigh time (%) = 0 (0)
Comm  time (%) = 0.0141425 (10.5254)
Outpt time (%) = 3.87524e-05 (0.0288412)
Other time (%) = 0.0467122 (34.7652)

Nlocal:    502.5 ave 546 max 459 min
Histogram: 1 0 0 0 0 0 0 0 0 1
Nghost:    32 ave 33 max 31 min
Histogram: 1 0 0 0 0 0 0 0 0 1
Neighs:    2841.5 ave 3099 max 2584 min
Histogram: 1 0 0 0 0 0 0 0 0 1

Total # of neighbors = 5683
Ave neighs/atom = 5.65473
Neighbor list builds = 0
Dangerous builds = 0
set region total property/atom Temp 600.000000 
  1005 settings made for property/atom
run 500    
Setting up run at Tue Oct  9 09:28:32 2018

Memory usage per processor = 10.3792 Mbytes
    Step    Atoms         KinEng            rke       heattran         Volume 
  161001     1005  1.8494898e-06  8.1408076e-06      840.47342          0.011 
CFD Coupling established at step 161100
CFD Coupling established at step 161200
CFD Coupling established at step 161300
CFD Coupling established at step 161400
CFD Coupling established at step 161500
  161501     1005  1.8938968e-06  7.6630364e-06      832.39958          0.011 
Loop time of 0.138598 on 2 procs for 500 steps with 1005 atoms, finish time Tue Oct  9 09:28:32 2018


Pair  time (%) = 0.0747425 (53.9277)
Neigh time (%) = 0 (0)
Comm  time (%) = 0.0165685 (11.9544)
Outpt time (%) = 2.0901e-05 (0.0150803)
Other time (%) = 0.0472658 (34.1028)

Nlocal:    502.5 ave 546 max 459 min
Histogram: 1 0 0 0 0 0 0 0 0 1
Nghost:    32 ave 33 max 31 min
Histogram: 1 0 0 0 0 0 0 0 0 1
Neighs:    2841.5 ave 3099 max 2584 min
Histogram: 1 0 0 0 0 0 0 0 0 1

Total # of neighbors = 5683
Ave neighs/atom = 5.65473
Neighbor list builds = 0
Dangerous builds = 0
set region total property/atom Temp 600.000000 
  1005 settings made for property/atom
run 500    
Setting up run at Tue Oct  9 09:28:32 2018

Memory usage per processor = 10.3792 Mbytes
    Step    Atoms         KinEng            rke       heattran         Volume 
  161501     1005  1.8938968e-06  7.6630364e-06      840.47342          0.011 
CFD Coupling established at step 161600
CFD Coupling established at step 161700
CFD Coupling established at step 161800
CFD Coupling established at step 161900
CFD Coupling established at step 162000
  162000     1005  1.5238344e-06  7.1267297e-06      832.44461          0.011 
  162001     1005  1.5231495e-06  7.1258241e-06      832.42852          0.011 
Loop time of 0.137758 on 2 procs for 500 steps with 1005 atoms, finish time Tue Oct  9 09:28:32 2018


Pair  time (%) = 0.0745323 (54.1038)
Neigh time (%) = 0 (0)
Comm  time (%) = 0.0157656 (11.4445)
Outpt time (%) = 3.7359e-05 (0.0271193)
Other time (%) = 0.0474226 (34.4246)

Nlocal:    502.5 ave 546 max 459 min
Histogram: 1 0 0 0 0 0 0 0 0 1
Nghost:    32 ave 33 max 31 min
Histogram: 1 0 0 0 0 0 0 0 0 1
Neighs:    2841.5 ave 3099 max 2584 min
Histogram: 1 0 0 0 0 0 0 0 0 1

Total # of neighbors = 5683
Ave neighs/atom = 5.65473
Neighbor list builds = 0
Dangerous builds = 0
set region total property/atom Temp 600.000000 
  1005 settings made for property/atom
run 500    
Setting up run at Tue Oct  9 09:28:32 2018

Memory usage per processor = 10.3792 Mbytes
    Step    Atoms         KinEng            rke       heattran         Volume 
  162001     1005  1.5231495e-06  7.1258241e-06      840.47342          0.011 
CFD Coupling established at step 162100
CFD Coupling established at step 162200
CFD Coupling established at step 162300
CFD Coupling established at step 162400
CFD Coupling established at step 162500
  162501     1005  1.3869567e-06  6.7545436e-06      832.45691          0.011 
Loop time of 0.138082 on 2 procs for 500 steps with 1005 atoms, finish time Tue Oct  9 09:28:32 2018


Pair  time (%) = 0.0751817 (54.4471)
Neigh time (%) = 0 (0)
Comm  time (%) = 0.0154288 (11.1736)
Outpt time (%) = 1.98885e-05 (0.0144034)
Other time (%) = 0.0474517 (34.3648)

Nlocal:    502.5 ave 546 max 459 min
Histogram: 1 0 0 0 0 0 0 0 0 1
Nghost:    32 ave 33 max 31 min
Histogram: 1 0 0 0 0 0 0 0 0 1
Neighs:    2842 ave 3099 max 2585 min
Histogram: 1 0 0 0 0 0 0 0 0 1

Total # of neighbors = 5684
Ave neighs/atom = 5.65572
Neighbor list builds = 0
Dangerous builds = 0
set region total property/atom Temp 600.000000 
  1005 settings made for property/atom
run 500    
Setting up run at Tue Oct  9 09:28:32 2018

Memory usage per processor = 10.3792 Mbytes
    Step    Atoms         KinEng            rke       heattran         Volume 
  162501     1005  1.3869567e-06  6.7545436e-06      840.47342          0.011 
CFD Coupling established at step 162600
CFD Coupling established at step 162700
CFD Coupling established at step 162800
CFD Coupling established at step 162900
CFD Coupling established at step 163000
  163000     1005  1.4230331e-06  6.3439578e-06       832.5007          0.011 
  163001     1005  1.4229668e-06  6.3429898e-06      832.48472          0.011 
Loop time of 0.141151 on 2 procs for 500 steps with 1005 atoms, finish time Tue Oct  9 09:28:32 2018


Pair  time (%) = 0.0755363 (53.5144)
Neigh time (%) = 0 (0)
Comm  time (%) = 0.0176403 (12.4974)
Outpt time (%) = 6.28179e-05 (0.0445039)
Other time (%) = 0.047912 (33.9437)

Nlocal:    502.5 ave 546 max 459 min
Histogram: 1 0 0 0 0 0 0 0 0 1
Nghost:    32 ave 33 max 31 min
Histogram: 1 0 0 0 0 0 0 0 0 1
Neighs:    2842 ave 3099 max 2585 min
Histogram: 1 0 0 0 0 0 0 0 0 1

Total # of neighbors = 5684
Ave neighs/atom = 5.65572
Neighbor list builds = 0
Dangerous builds = 0
set region total property/atom Temp 600.000000 
  1005 settings made for property/atom
run 500    
Setting up run at Tue Oct  9 09:28:32 2018

Memory usage per processor = 10.3792 Mbytes
    Step    Atoms         KinEng            rke       heattran         Volume 
  163001     1005  1.4229668e-06  6.3429898e-06      840.47342          0.011 
CFD Coupling established at step 163100
CFD Coupling established at step 163200
CFD Coupling established at step 163300
CFD Coupling established at step 163400
CFD Coupling established at step 163500
  163501     1005  1.3023308e-06  5.8256611e-06      832.51199          0.011 
Loop time of 0.152793 on 2 procs for 500 steps with 1005 atoms, finish time Tue Oct  9 09:28:32 2018


Pair  time (%) = 0.078923 (51.6534)
Neigh time (%) = 0 (0)
Comm  time (%) = 0.0240611 (15.7475)
Outpt time (%) = 2.0789e-05 (0.013606)
Other time (%) = 0.0497884 (32.5854)

Nlocal:    502.5 ave 546 max 459 min
Histogram: 1 0 0 0 0 0 0 0 0 1
Nghost:    32 ave 33 max 31 min
Histogram: 1 0 0 0 0 0 0 0 0 1
Neighs:    2841.5 ave 3099 max 2584 min
Histogram: 1 0 0 0 0 0 0 0 0 1

Total # of neighbors = 5683
Ave neighs/atom = 5.65473
Neighbor list builds = 0
Dangerous builds = 0
set region total property/atom Temp 600.000000 
  1005 settings made for property/atom
run 500    
Setting up run at Tue Oct  9 09:28:32 2018

Memory usage per processor = 10.3792 Mbytes
    Step    Atoms         KinEng            rke       heattran         Volume 
  163501     1005  1.3023308e-06  5.8256611e-06      840.47342          0.011 
CFD Coupling established at step 163600
CFD Coupling established at step 163700
CFD Coupling established at step 163800
CFD Coupling established at step 163900
CFD Coupling established at step 164000
  164000     1005  1.1324593e-06  5.3157668e-06      832.55462          0.011 
  164001     1005  1.1321665e-06  5.3147752e-06      832.53875          0.011 
Loop time of 0.154328 on 2 procs for 500 steps with 1005 atoms, finish time Tue Oct  9 09:28:32 2018


Pair  time (%) = 0.0798176 (51.7195)
Neigh time (%) = 0 (0)
Comm  time (%) = 0.0242558 (15.7171)
Outpt time (%) = 3.9983e-05 (0.0259078)
Other time (%) = 0.0502144 (32.5375)

Nlocal:    502.5 ave 546 max 459 min
Histogram: 1 0 0 0 0 0 0 0 0 1
Nghost:    32 ave 33 max 31 min
Histogram: 1 0 0 0 0 0 0 0 0 1
Neighs:    2841.5 ave 3099 max 2584 min
Histogram: 1 0 0 0 0 0 0 0 0 1

Total # of neighbors = 5683
Ave neighs/atom = 5.65473
Neighbor list builds = 0
Dangerous builds = 0
set region total property/atom Temp 600.000000 
  1005 settings made for property/atom
run 500    
Setting up run at Tue Oct  9 09:28:32 2018

Memory usage per processor = 10.3792 Mbytes
    Step    Atoms         KinEng            rke       heattran         Volume 
  164001     1005  1.1321665e-06  5.3147752e-06      840.47342          0.011 
CFD Coupling established at step 164100
CFD Coupling established at step 164200
CFD Coupling established at step 164300
CFD Coupling established at step 164400
CFD Coupling established at step 164500
  164501     1005  1.0100206e-06   4.819533e-06      832.56501          0.011 
Loop time of 0.151808 on 2 procs for 500 steps with 1005 atoms, finish time Tue Oct  9 09:28:33 2018


Pair  time (%) = 0.0784392 (51.6699)
Neigh time (%) = 0 (0)
Comm  time (%) = 0.0235908 (15.5398)
Outpt time (%) = 4.16135e-05 (0.0274119)
Other time (%) = 0.0497368 (32.7629)

Nlocal:    502.5 ave 546 max 459 min
Histogram: 1 0 0 0 0 0 0 0 0 1
Nghost:    32 ave 33 max 31 min
Histogram: 1 0 0 0 0 0 0 0 0 1
Neighs:    2841.5 ave 3099 max 2584 min
Histogram: 1 0 0 0 0 0 0 0 0 1

Total # of neighbors = 5683
Ave neighs/atom = 5.65473
Neighbor list builds = 0
Dangerous builds = 0
set region total property/atom Temp 600.000000 
  1005 settings made for property/atom
run 500    
Setting up run at Tue Oct  9 09:28:33 2018

Memory usage per processor = 10.3792 Mbytes
    Step    Atoms         KinEng            rke       heattran         Volume 
  164501     1005  1.0100206e-06   4.819533e-06      840.47342          0.011 
CFD Coupling established at step 164600
CFD Coupling established at step 164700
CFD Coupling established at step 164800
CFD Coupling established at step 164900
CFD Coupling established at step 165000
  165000     1005  9.0989619e-07  4.3137011e-06      832.60652          0.011 
  165001     1005  9.0971421e-07  4.3127024e-06      832.59076          0.011 
Loop time of 0.152793 on 2 procs for 500 steps with 1005 atoms, finish time Tue Oct  9 09:28:33 2018


Pair  time (%) = 0.0790702 (51.7498)
Neigh time (%) = 0 (0)
Comm  time (%) = 0.0237768 (15.5614)
Outpt time (%) = 3.93055e-05 (0.0257246)
Other time (%) = 0.049907 (32.6631)

Nlocal:    502.5 ave 546 max 459 min
Histogram: 1 0 0 0 0 0 0 0 0 1
Nghost:    32 ave 33 max 31 min
Histogram: 1 0 0 0 0 0 0 0 0 1
Neighs:    2841.5 ave 3099 max 2584 min
Histogram: 1 0 0 0 0 0 0 0 0 1

Total # of neighbors = 5683
Ave neighs/atom = 5.65473
Neighbor list builds = 0
Dangerous builds = 0
set region total property/atom Temp 600.000000 
  1005 settings made for property/atom
run 500    
Setting up run at Tue Oct  9 09:28:33 2018

Memory usage per processor = 10.3792 Mbytes
    Step    Atoms         KinEng            rke       heattran         Volume 
  165001     1005  9.0971421e-07  4.3127024e-06      840.47342          0.011 
CFD Coupling established at step 165100
CFD Coupling established at step 165200
CFD Coupling established at step 165300
CFD Coupling established at step 165400
CFD Coupling established at step 165500
  165501     1005  8.3077542e-07  3.8338303e-06      832.61598          0.011 
Loop time of 0.135836 on 2 procs for 500 steps with 1005 atoms, finish time Tue Oct  9 09:28:33 2018


Pair  time (%) = 0.0739839 (54.4657)
Neigh time (%) = 0 (0)
Comm  time (%) = 0.0151282 (11.1371)
Outpt time (%) = 2.0074e-05 (0.0147781)
Other time (%) = 0.0467037 (34.3825)

Nlocal:    502.5 ave 546 max 459 min
Histogram: 1 0 0 0 0 0 0 0 0 1
Nghost:    32 ave 33 max 31 min
Histogram: 1 0 0 0 0 0 0 0 0 1
Neighs:    2841.5 ave 3099 max 2584 min
Histogram: 1 0 0 0 0 0 0 0 0 1

Total # of neighbors = 5683
Ave neighs/atom = 5.65473
Neighbor list builds = 0
Dangerous builds = 0
set region total property/atom Temp 600.000000 
  1005 settings made for property/atom
run 500    
Setting up run at Tue Oct  9 09:28:33 2018

Memory usage per processor = 10.3792 Mbytes
    Step    Atoms         KinEng            rke       heattran         Volume 
  165501     1005  8.3077542e-07  3.8338303e-06      840.47342          0.011 
CFD Coupling established at step 165600
CFD Coupling established at step 165700
CFD Coupling established at step 165800
CFD Coupling established at step 165900
CFD Coupling established at step 166000
  166000     1005  7.4400978e-07  3.3638807e-06      832.65635          0.011 
  166001     1005  7.4378537e-07  3.3629039e-06      832.64068          0.011 
Loop time of 0.139232 on 2 procs for 500 steps with 1005 atoms, finish time Tue Oct  9 09:28:33 2018


Pair  time (%) = 0.0745996 (53.5792)
Neigh time (%) = 0 (0)
Comm  time (%) = 0.0171079 (12.2873)
Outpt time (%) = 6.2422e-05 (0.0448329)
Other time (%) = 0.0474624 (34.0886)

Nlocal:    502.5 ave 546 max 459 min
Histogram: 1 0 0 0 0 0 0 0 0 1
Nghost:    32 ave 33 max 31 min
Histogram: 1 0 0 0 0 0 0 0 0 1
Neighs:    2841.5 ave 3099 max 2584 min
Histogram: 1 0 0 0 0 0 0 0 0 1

Total # of neighbors = 5683
Ave neighs/atom = 5.65473
Neighbor list builds = 0
Dangerous builds = 0
set region total property/atom Temp 600.000000 
  1005 settings made for property/atom
run 500    
Setting up run at Tue Oct  9 09:28:33 2018

Memory usage per processor = 10.3792 Mbytes
    Step    Atoms         KinEng            rke       heattran         Volume 
  166001     1005  7.4378537e-07  3.3629039e-06      840.47342          0.011 
CFD Coupling established at step 166100
CFD Coupling established at step 166200
CFD Coupling established at step 166300
CFD Coupling established at step 166400
CFD Coupling established at step 166500
  166501     1005  6.1100277e-07  2.8659448e-06      832.66487          0.011 
Loop time of 0.139083 on 2 procs for 500 steps with 1005 atoms, finish time Tue Oct  9 09:28:33 2018


Pair  time (%) = 0.0747693 (53.7589)
Neigh time (%) = 0 (0)
Comm  time (%) = 0.0168652 (12.126)
Outpt time (%) = 2.02915e-05 (0.0145895)
Other time (%) = 0.0474279 (34.1005)

Nlocal:    502.5 ave 546 max 459 min
Histogram: 1 0 0 0 0 0 0 0 0 1
Nghost:    32 ave 33 max 31 min
Histogram: 1 0 0 0 0 0 0 0 0 1
Neighs:    2841.5 ave 3099 max 2584 min
Histogram: 1 0 0 0 0 0 0 0 0 1

Total # of neighbors = 5683
Ave neighs/atom = 5.65473
Neighbor list builds = 0
Dangerous builds = 0
set region total property/atom Temp 600.000000 
  1005 settings made for property/atom
run 500    
Setting up run at Tue Oct  9 09:28:33 2018

Memory usage per processor = 10.3792 Mbytes
    Step    Atoms         KinEng            rke       heattran         Volume 
  166501     1005  6.1100277e-07  2.8659448e-06      840.47342          0.011 
CFD Coupling established at step 166600
CFD Coupling established at step 166700
CFD Coupling established at step 166800
CFD Coupling established at step 166900
CFD Coupling established at step 167000
  167000     1005  4.9117773e-07    2.40381e-06      832.70412          0.011 
  167001     1005  4.9099818e-07  2.4029518e-06      832.68855          0.011 
Loop time of 0.141399 on 2 procs for 500 steps with 1005 atoms, finish time Tue Oct  9 09:28:33 2018


Pair  time (%) = 0.0757424 (53.5665)
Neigh time (%) = 0 (0)
Comm  time (%) = 0.0179129 (12.6683)
Outpt time (%) = 4.06265e-05 (0.0287318)
Other time (%) = 0.047703 (33.7365)

Nlocal:    502.5 ave 546 max 459 min
Histogram: 1 0 0 0 0 0 0 0 0 1
Nghost:    32 ave 33 max 31 min
Histogram: 1 0 0 0 0 0 0 0 0 1
Neighs:    2841.5 ave 3099 max 2584 min
Histogram: 1 0 0 0 0 0 0 0 0 1

Total # of neighbors = 5683
Ave neighs/atom = 5.65473
Neighbor list builds = 0
Dangerous builds = 0
set region total property/atom Temp 600.000000 
  1005 settings made for property/atom
run 500    
Setting up run at Tue Oct  9 09:28:33 2018

Memory usage per processor = 10.3792 Mbytes
    Step    Atoms         KinEng            rke       heattran         Volume 
  167001     1005  4.9099818e-07  2.4029518e-06      840.47342          0.011 
CFD Coupling established at step 167100
CFD Coupling established at step 167200
CFD Coupling established at step 167300
CFD Coupling established at step 167400
CFD Coupling established at step 167500
  167501     1005  4.3088777e-07  2.0010937e-06      832.71173          0.011 
Loop time of 0.13467 on 2 procs for 500 steps with 1005 atoms, finish time Tue Oct  9 09:28:33 2018


Pair  time (%) = 0.0732943 (54.4251)
Neigh time (%) = 0 (0)
Comm  time (%) = 0.0147675 (10.9657)
Outpt time (%) = 2.0669e-05 (0.0153478)
Other time (%) = 0.0465876 (34.5939)

Nlocal:    502.5 ave 546 max 459 min
Histogram: 1 0 0 0 0 0 0 0 0 1
Nghost:    32 ave 33 max 31 min
Histogram: 1 0 0 0 0 0 0 0 0 1
Neighs:    2841.5 ave 3099 max 2584 min
Histogram: 1 0 0 0 0 0 0 0 0 1

Total # of neighbors = 5683
Ave neighs/atom = 5.65473
Neighbor list builds = 0
Dangerous builds = 0
set region total property/atom Temp 600.000000 
  1005 settings made for property/atom
run 500    
Setting up run at Tue Oct  9 09:28:34 2018

Memory usage per processor = 10.3792 Mbytes
    Step    Atoms         KinEng            rke       heattran         Volume 
  167501     1005  4.3088777e-07  2.0010937e-06      840.47342          0.011 
CFD Coupling established at step 167600
CFD Coupling established at step 167700
CFD Coupling established at step 167800
CFD Coupling established at step 167900
CFD Coupling established at step 168000
  168000     1005  3.7964593e-07  1.6230713e-06      832.74989          0.011 
  168001     1005  3.7949998e-07  1.6223163e-06      832.73441          0.011 
Loop time of 0.135351 on 2 procs for 500 steps with 1005 atoms, finish time Tue Oct  9 09:28:34 2018


Pair  time (%) = 0.073798 (54.5235)
Neigh time (%) = 0 (0)
Comm  time (%) = 0.0149184 (11.022)
Outpt time (%) = 4.223e-05 (0.0312004)
Other time (%) = 0.0465922 (34.4233)

Nlocal:    502.5 ave 546 max 459 min
Histogram: 1 0 0 0 0 0 0 0 0 1
Nghost:    32 ave 33 max 31 min
Histogram: 1 0 0 0 0 0 0 0 0 1
Neighs:    2841.5 ave 3099 max 2584 min
Histogram: 1 0 0 0 0 0 0 0 0 1

Total # of neighbors = 5683
Ave neighs/atom = 5.65473
Neighbor list builds = 0
Dangerous builds = 0
set region total property/atom Temp 600.000000 
  1005 settings made for property/atom
run 500    
Setting up run at Tue Oct  9 09:28:34 2018

Memory usage per processor = 10.3792 Mbytes
    Step    Atoms         KinEng            rke       heattran         Volume 
  168001     1005  3.7949998e-07  1.6223163e-06      840.47342          0.011 
CFD Coupling established at step 168100
CFD Coupling established at step 168200
CFD Coupling established at step 168300
CFD Coupling established at step 168400
CFD Coupling established at step 168500
  168501     1005  2.8403886e-07  1.2514435e-06      832.75659          0.011 
Loop time of 0.139263 on 2 procs for 500 steps with 1005 atoms, finish time Tue Oct  9 09:28:34 2018


Pair  time (%) = 0.0753717 (54.1217)
Neigh time (%) = 0 (0)
Comm  time (%) = 0.0160102 (11.4963)
Outpt time (%) = 2.07285e-05 (0.0148844)
Other time (%) = 0.0478608 (34.3671)

Nlocal:    502.5 ave 546 max 459 min
Histogram: 1 0 0 0 0 0 0 0 0 1
Nghost:    32 ave 33 max 31 min
Histogram: 1 0 0 0 0 0 0 0 0 1
Neighs:    2841.5 ave 3099 max 2584 min
Histogram: 1 0 0 0 0 0 0 0 0 1

Total # of neighbors = 5683
Ave neighs/atom = 5.65473
Neighbor list builds = 0
Dangerous builds = 0
set region total property/atom Temp 600.000000 
  1005 settings made for property/atom
run 500    
Setting up run at Tue Oct  9 09:28:34 2018

Memory usage per processor = 10.3792 Mbytes
    Step    Atoms         KinEng            rke       heattran         Volume 
  168501     1005  2.8403886e-07  1.2514435e-06      840.47342          0.011 
CFD Coupling established at step 168600
CFD Coupling established at step 168700
CFD Coupling established at step 168800
CFD Coupling established at step 168900
CFD Coupling established at step 169000
  169000     1005  1.8879302e-07  9.1901369e-07      832.79368          0.011 
  169001     1005  1.8864774e-07  9.1840815e-07      832.77829          0.011 
Loop time of 0.139339 on 2 procs for 500 steps with 1005 atoms, finish time Tue Oct  9 09:28:34 2018


Pair  time (%) = 0.075071 (53.8765)
Neigh time (%) = 0 (0)
Comm  time (%) = 0.0164314 (11.7924)
Outpt time (%) = 3.98624e-05 (0.0286082)
Other time (%) = 0.0477967 (34.3025)

Nlocal:    502.5 ave 546 max 459 min
Histogram: 1 0 0 0 0 0 0 0 0 1
Nghost:    32 ave 33 max 31 min
Histogram: 1 0 0 0 0 0 0 0 0 1
Neighs:    2841.5 ave 3099 max 2584 min
Histogram: 1 0 0 0 0 0 0 0 0 1

Total # of neighbors = 5683
Ave neighs/atom = 5.65473
Neighbor list builds = 0
Dangerous builds = 0
set region total property/atom Temp 600.000000 
  1005 settings made for property/atom
run 500    
Setting up run at Tue Oct  9 09:28:34 2018

Memory usage per processor = 10.3792 Mbytes
    Step    Atoms         KinEng            rke       heattran         Volume 
  169001     1005  1.8864774e-07  9.1840815e-07      840.47342          0.011 
CFD Coupling established at step 169100
CFD Coupling established at step 169200
CFD Coupling established at step 169300
CFD Coupling established at step 169400
CFD Coupling established at step 169500
  169501     1005  1.4298077e-07  6.4930564e-07      832.79949          0.011 
Loop time of 0.139766 on 2 procs for 500 steps with 1005 atoms, finish time Tue Oct  9 09:28:34 2018


Pair  time (%) = 0.0752297 (53.8256)
Neigh time (%) = 0 (0)
Comm  time (%) = 0.0164889 (11.7975)
Outpt time (%) = 2.1487e-05 (0.0153736)
Other time (%) = 0.0480255 (34.3615)

Nlocal:    502.5 ave 546 max 459 min
Histogram: 1 0 0 0 0 0 0 0 0 1
Nghost:    32 ave 33 max 31 min
Histogram: 1 0 0 0 0 0 0 0 0 1
Neighs:    2841.5 ave 3099 max 2584 min
Histogram: 1 0 0 0 0 0 0 0 0 1

Total # of neighbors = 5683
Ave neighs/atom = 5.65473
Neighbor list builds = 0
Dangerous builds = 0
set region total property/atom Temp 600.000000 
  1005 settings made for property/atom
run 500    
Setting up run at Tue Oct  9 09:28:34 2018

Memory usage per processor = 10.3792 Mbytes
    Step    Atoms         KinEng            rke       heattran         Volume 
  169501     1005  1.4298077e-07  6.4930564e-07      840.47342          0.011 
CFD Coupling established at step 169600
CFD Coupling established at step 169700
CFD Coupling established at step 169800
CFD Coupling established at step 169900
CFD Coupling established at step 170000
  170000     1005  1.2016329e-07   4.340841e-07      832.83553          0.011 
  170001     1005   1.201047e-07  4.3368883e-07      832.82022          0.011 
Loop time of 0.140984 on 2 procs for 500 steps with 1005 atoms, finish time Tue Oct  9 09:28:34 2018


Pair  time (%) = 0.0759026 (53.8378)
Neigh time (%) = 0 (0)
Comm  time (%) = 0.0171956 (12.1968)
Outpt time (%) = 4.8911e-05 (0.0346926)
Other time (%) = 0.0478368 (33.9307)

Nlocal:    502.5 ave 546 max 459 min
Histogram: 1 0 0 0 0 0 0 0 0 1
Nghost:    32 ave 33 max 31 min
Histogram: 1 0 0 0 0 0 0 0 0 1
Neighs:    2841.5 ave 3099 max 2584 min
Histogram: 1 0 0 0 0 0 0 0 0 1

Total # of neighbors = 5683
Ave neighs/atom = 5.65473
Neighbor list builds = 0
Dangerous builds = 0
set region total property/atom Temp 600.000000 
  1005 settings made for property/atom
run 500    
Setting up run at Tue Oct  9 09:28:34 2018

Memory usage per processor = 10.3792 Mbytes
    Step    Atoms         KinEng            rke       heattran         Volume 
  170001     1005   1.201047e-07  4.3368883e-07      840.47342          0.011 
CFD Coupling established at step 170100
CFD Coupling established at step 170200
CFD Coupling established at step 170300
CFD Coupling established at step 170400
CFD Coupling established at step 170500
  170501     1005  5.1089359e-08  1.3997119e-07      832.84047          0.011 
Loop time of 0.137511 on 2 procs for 500 steps with 1005 atoms, finish time Tue Oct  9 09:28:34 2018


Pair  time (%) = 0.0749565 (54.5096)
Neigh time (%) = 0 (0)
Comm  time (%) = 0.0150587 (10.951)
Outpt time (%) = 2.11085e-05 (0.0153505)
Other time (%) = 0.0474742 (34.5241)

Nlocal:    502.5 ave 546 max 459 min
Histogram: 1 0 0 0 0 0 0 0 0 1
Nghost:    32 ave 33 max 31 min
Histogram: 1 0 0 0 0 0 0 0 0 1
Neighs:    2841.5 ave 3099 max 2584 min
Histogram: 1 0 0 0 0 0 0 0 0 1

Total # of neighbors = 5683
Ave neighs/atom = 5.65473
Neighbor list builds = 0
Dangerous builds = 0
set region total property/atom Temp 600.000000 
  1005 settings made for property/atom
run 500    
Setting up run at Tue Oct  9 09:28:34 2018

Memory usage per processor = 10.3792 Mbytes
    Step    Atoms         KinEng            rke       heattran         Volume 
  170501     1005  5.1089359e-08  1.3997119e-07      840.47342          0.011 
CFD Coupling established at step 170600
CFD Coupling established at step 170700
CFD Coupling established at step 170800
CFD Coupling established at step 170900
CFD Coupling established at step 171000
  171000     1005  1.0436197e-08  1.1307099e-08      832.87546          0.011 
  171001     1005  1.0415687e-08  1.1345479e-08      832.86023          0.011 
Loop time of 0.152236 on 2 procs for 500 steps with 1005 atoms, finish time Tue Oct  9 09:28:35 2018


Pair  time (%) = 0.0791025 (51.9606)
Neigh time (%) = 0 (0)
Comm  time (%) = 0.0232559 (15.2763)
Outpt time (%) = 3.92981e-05 (0.025814)
Other time (%) = 0.0498378 (32.7373)

Nlocal:    502.5 ave 546 max 459 min
Histogram: 1 0 0 0 0 0 0 0 0 1
Nghost:    32 ave 33 max 31 min
Histogram: 1 0 0 0 0 0 0 0 0 1
Neighs:    2841.5 ave 3099 max 2584 min
Histogram: 1 0 0 0 0 0 0 0 0 1

Total # of neighbors = 5683
Ave neighs/atom = 5.65473
Neighbor list builds = 0
Dangerous builds = 0
set region total property/atom Temp 600.000000 
  1005 settings made for property/atom
run 500    
Setting up run at Tue Oct  9 09:28:35 2018

Memory usage per processor = 10.3792 Mbytes
    Step    Atoms         KinEng            rke       heattran         Volume 
  171001     1005  1.0415687e-08  1.1345479e-08      840.47342          0.011 
CFD Coupling established at step 171100
CFD Coupling established at step 171200
CFD Coupling established at step 171300
CFD Coupling established at step 171400
CFD Coupling established at step 171500
  171501     1005  8.5537888e-09   3.373659e-08      832.87952          0.011 
Loop time of 0.154039 on 2 procs for 500 steps with 1005 atoms, finish time Tue Oct  9 09:28:35 2018


Pair  time (%) = 0.079512 (51.6181)
Neigh time (%) = 0 (0)
Comm  time (%) = 0.0242964 (15.7729)
Outpt time (%) = 2.9669e-05 (0.0192607)
Other time (%) = 0.050201 (32.5898)

Nlocal:    502.5 ave 546 max 459 min
Histogram: 1 0 0 0 0 0 0 0 0 1
Nghost:    32 ave 33 max 31 min
Histogram: 1 0 0 0 0 0 0 0 0 1
Neighs:    2841.5 ave 3099 max 2584 min
Histogram: 1 0 0 0 0 0 0 0 0 1

Total # of neighbors = 5683
Ave neighs/atom = 5.65473
Neighbor list builds = 0
Dangerous builds = 0
set region total property/atom Temp 600.000000 
  1005 settings made for property/atom
run 500    
Setting up run at Tue Oct  9 09:28:35 2018

Memory usage per processor = 10.3792 Mbytes
    Step    Atoms         KinEng            rke       heattran         Volume 
  171501     1005  8.5537888e-09   3.373659e-08      840.47342          0.011 
CFD Coupling established at step 171600
CFD Coupling established at step 171700
CFD Coupling established at step 171800
CFD Coupling established at step 171900
CFD Coupling established at step 172000
  172000     1005  3.2483009e-08  9.6764531e-08       832.9135          0.011 
  172001     1005  3.2562153e-08  9.6948509e-08      832.89835          0.011 
Loop time of 0.141047 on 2 procs for 500 steps with 1005 atoms, finish time Tue Oct  9 09:28:35 2018


Pair  time (%) = 0.0753139 (53.3964)
Neigh time (%) = 0 (0)
Comm  time (%) = 0.0179346 (12.7154)
Outpt time (%) = 4.0143e-05 (0.0284608)
Other time (%) = 0.0477581 (33.8598)

Nlocal:    502.5 ave 546 max 459 min
Histogram: 1 0 0 0 0 0 0 0 0 1
Nghost:    32 ave 33 max 31 min
Histogram: 1 0 0 0 0 0 0 0 0 1
Neighs:    2841.5 ave 3099 max 2584 min
Histogram: 1 0 0 0 0 0 0 0 0 1

Total # of neighbors = 5683
Ave neighs/atom = 5.65473
Neighbor list builds = 0
Dangerous builds = 0
set region total property/atom Temp 600.000000 
  1005 settings made for property/atom
run 500    
Setting up run at Tue Oct  9 09:28:35 2018

Memory usage per processor = 10.3792 Mbytes
    Step    Atoms         KinEng            rke       heattran         Volume 
  172001     1005  3.2562153e-08  9.6948509e-08      840.47342          0.011 
CFD Coupling established at step 172100
CFD Coupling established at step 172200
CFD Coupling established at step 172300
CFD Coupling established at step 172400
CFD Coupling established at step 172500
  172501     1005  6.3192876e-08  2.1571638e-07      832.91671          0.011 
Loop time of 0.139663 on 2 procs for 500 steps with 1005 atoms, finish time Tue Oct  9 09:28:35 2018


Pair  time (%) = 0.0752189 (53.8573)
Neigh time (%) = 0 (0)
Comm  time (%) = 0.0166587 (11.9278)
Outpt time (%) = 2.1559e-05 (0.0154364)
Other time (%) = 0.0477641 (34.1995)

Nlocal:    502.5 ave 546 max 459 min
Histogram: 1 0 0 0 0 0 0 0 0 1
Nghost:    32 ave 33 max 31 min
Histogram: 1 0 0 0 0 0 0 0 0 1
Neighs:    2841.5 ave 3099 max 2584 min
Histogram: 1 0 0 0 0 0 0 0 0 1

Total # of neighbors = 5683
Ave neighs/atom = 5.65473
Neighbor list builds = 0
Dangerous builds = 0
set region total property/atom Temp 600.000000 
  1005 settings made for property/atom
run 500    
Setting up run at Tue Oct  9 09:28:35 2018

Memory usage per processor = 10.3792 Mbytes
    Step    Atoms         KinEng            rke       heattran         Volume 
  172501     1005  6.3192876e-08  2.1571638e-07      840.47342          0.011 
CFD Coupling established at step 172600
CFD Coupling established at step 172700
CFD Coupling established at step 172800
CFD Coupling established at step 172900
CFD Coupling established at step 173000
  173000     1005  7.6989614e-08  3.8164191e-07      832.94969          0.011 
  173001     1005  7.7024341e-08  3.8202002e-07      832.93461          0.011 
Loop time of 0.143153 on 2 procs for 500 steps with 1005 atoms, finish time Tue Oct  9 09:28:35 2018


Pair  time (%) = 0.076848 (53.6824)
Neigh time (%) = 0 (0)
Comm  time (%) = 0.0178049 (12.4377)
Outpt time (%) = 4.22286e-05 (0.0294989)
Other time (%) = 0.0484579 (33.8504)

Nlocal:    502.5 ave 546 max 459 min
Histogram: 1 0 0 0 0 0 0 0 0 1
Nghost:    32 ave 33 max 31 min
Histogram: 1 0 0 0 0 0 0 0 0 1
Neighs:    2841.5 ave 3099 max 2584 min
Histogram: 1 0 0 0 0 0 0 0 0 1

Total # of neighbors = 5683
Ave neighs/atom = 5.65473
Neighbor list builds = 0
Dangerous builds = 0
set region total property/atom Temp 600.000000 
  1005 settings made for property/atom
run 500    
Setting up run at Tue Oct  9 09:28:35 2018

Memory usage per processor = 10.3792 Mbytes
    Step    Atoms         KinEng            rke       heattran         Volume 
  173001     1005  7.7024341e-08  3.8202002e-07      840.47342          0.011 
CFD Coupling established at step 173100
CFD Coupling established at step 173200
CFD Coupling established at step 173300
CFD Coupling established at step 173400
CFD Coupling established at step 173500
  173501     1005  1.0874661e-07  5.9130392e-07      832.95207          0.011 
Loop time of 0.142344 on 2 procs for 500 steps with 1005 atoms, finish time Tue Oct  9 09:28:35 2018


Pair  time (%) = 0.0764513 (53.7087)
Neigh time (%) = 0 (0)
Comm  time (%) = 0.0174759 (12.2772)
Outpt time (%) = 2.1649e-05 (0.0152089)
Other time (%) = 0.0483956 (33.9989)

Nlocal:    502.5 ave 546 max 459 min
Histogram: 1 0 0 0 0 0 0 0 0 1
Nghost:    32 ave 33 max 31 min
Histogram: 1 0 0 0 0 0 0 0 0 1
Neighs:    2841.5 ave 3099 max 2584 min
Histogram: 1 0 0 0 0 0 0 0 0 1

Total # of neighbors = 5683
Ave neighs/atom = 5.65473
Neighbor list builds = 0
Dangerous builds = 0
set region total property/atom Temp 600.000000 
  1005 settings made for property/atom
run 500    
Setting up run at Tue Oct  9 09:28:35 2018

Memory usage per processor = 10.3792 Mbytes
    Step    Atoms         KinEng            rke       heattran         Volume 
  173501     1005  1.0874661e-07  5.9130392e-07      840.47342          0.011 
CFD Coupling established at step 173600
CFD Coupling established at step 173700
CFD Coupling established at step 173800
CFD Coupling established at step 173900
CFD Coupling established at step 174000
  174000     1005  1.6337917e-07  8.5023101e-07      832.98407          0.011 
  174001     1005  1.6349597e-07  8.5080696e-07      832.96906          0.011 
Loop time of 0.14046 on 2 procs for 500 steps with 1005 atoms, finish time Tue Oct  9 09:28:35 2018


Pair  time (%) = 0.0759736 (54.089)
Neigh time (%) = 0 (0)
Comm  time (%) = 0.0163795 (11.6613)
Outpt time (%) = 3.95285e-05 (0.0281421)
Other time (%) = 0.0480677 (34.2215)

Nlocal:    502.5 ave 546 max 459 min
Histogram: 1 0 0 0 0 0 0 0 0 1
Nghost:    32 ave 33 max 31 min
Histogram: 1 0 0 0 0 0 0 0 0 1
Neighs:    2841.5 ave 3099 max 2584 min
Histogram: 1 0 0 0 0 0 0 0 0 1

Total # of neighbors = 5683
Ave neighs/atom = 5.65473
Neighbor list builds = 0
Dangerous builds = 0
set region total property/atom Temp 600.000000 
  1005 settings made for property/atom
run 500    
Setting up run at Tue Oct  9 09:28:35 2018

Memory usage per processor = 10.3792 Mbytes
    Step    Atoms         KinEng            rke       heattran         Volume 
  174001     1005  1.6349597e-07  8.5080696e-07      840.47342          0.011 
CFD Coupling established at step 174100
CFD Coupling established at step 174200
CFD Coupling established at step 174300
CFD Coupling established at step 174400
CFD Coupling established at step 174500
  174501     1005  2.2154702e-07  1.1605689e-06      832.98561          0.011 
Loop time of 0.139523 on 2 procs for 500 steps with 1005 atoms, finish time Tue Oct  9 09:28:36 2018


Pair  time (%) = 0.0755188 (54.1266)
Neigh time (%) = 0 (0)
Comm  time (%) = 0.0161853 (11.6005)
Outpt time (%) = 2.64745e-05 (0.0189751)
Other time (%) = 0.0477919 (34.2539)

Nlocal:    502.5 ave 546 max 459 min
Histogram: 1 0 0 0 0 0 0 0 0 1
Nghost:    32 ave 33 max 31 min
Histogram: 1 0 0 0 0 0 0 0 0 1
Neighs:    2841.5 ave 3099 max 2584 min
Histogram: 1 0 0 0 0 0 0 0 0 1

Total # of neighbors = 5683
Ave neighs/atom = 5.65473
Neighbor list builds = 0
Dangerous builds = 0
set region total property/atom Temp 600.000000 
  1005 settings made for property/atom
run 500    
Setting up run at Tue Oct  9 09:28:36 2018

Memory usage per processor = 10.3792 Mbytes
    Step    Atoms         KinEng            rke       heattran         Volume 
  174501     1005  2.2154702e-07  1.1605689e-06      840.47342          0.011 
CFD Coupling established at step 174600
CFD Coupling established at step 174700
CFD Coupling established at step 174800
CFD Coupling established at step 174900
CFD Coupling established at step 175000
  175000     1005  2.8228672e-07  1.4997154e-06      833.01665          0.011 
  175001     1005  2.8241196e-07  1.5004217e-06       833.0017          0.011 
Loop time of 0.141716 on 2 procs for 500 steps with 1005 atoms, finish time Tue Oct  9 09:28:36 2018


Pair  time (%) = 0.0755947 (53.3422)
Neigh time (%) = 0 (0)
Comm  time (%) = 0.0181015 (12.773)
Outpt time (%) = 5.52405e-05 (0.0389796)
Other time (%) = 0.047965 (33.8457)

Nlocal:    502.5 ave 546 max 459 min
Histogram: 1 0 0 0 0 0 0 0 0 1
Nghost:    32 ave 33 max 31 min
Histogram: 1 0 0 0 0 0 0 0 0 1
Neighs:    2841.5 ave 3099 max 2584 min
Histogram: 1 0 0 0 0 0 0 0 0 1

Total # of neighbors = 5683
Ave neighs/atom = 5.65473
Neighbor list builds = 0
Dangerous builds = 0
set region total property/atom Temp 600.000000 
  1005 settings made for property/atom
run 500    
Setting up run at Tue Oct  9 09:28:36 2018

Memory usage per processor = 10.3792 Mbytes
    Step    Atoms         KinEng            rke       heattran         Volume 
  175001     1005  2.8241196e-07  1.5004217e-06      840.47342          0.011 
CFD Coupling established at step 175100
CFD Coupling established at step 175200
CFD Coupling established at step 175300
CFD Coupling established at step 175400
CFD Coupling established at step 175500
  175501     1005  3.4612304e-07  1.8696754e-06      833.01736          0.011 
Loop time of 0.142979 on 2 procs for 500 steps with 1005 atoms, finish time Tue Oct  9 09:28:36 2018


Pair  time (%) = 0.076403 (53.4365)
Neigh time (%) = 0 (0)
Comm  time (%) = 0.0183547 (12.8373)
Outpt time (%) = 2.03285e-05 (0.0142178)
Other time (%) = 0.0482009 (33.7119)

Nlocal:    502.5 ave 546 max 459 min
Histogram: 1 0 0 0 0 0 0 0 0 1
Nghost:    32 ave 33 max 31 min
Histogram: 1 0 0 0 0 0 0 0 0 1
Neighs:    2841.5 ave 3099 max 2584 min
Histogram: 1 0 0 0 0 0 0 0 0 1

Total # of neighbors = 5683
Ave neighs/atom = 5.65473
Neighbor list builds = 0
Dangerous builds = 0
set region total property/atom Temp 600.000000 
  1005 settings made for property/atom
run 500    
Setting up run at Tue Oct  9 09:28:36 2018

Memory usage per processor = 10.3792 Mbytes
    Step    Atoms         KinEng            rke       heattran         Volume 
  175501     1005  3.4612304e-07  1.8696754e-06      840.47342          0.011 
CFD Coupling established at step 175600
CFD Coupling established at step 175700
CFD Coupling established at step 175800
CFD Coupling established at step 175900
CFD Coupling established at step 176000
  176000     1005    4.16656e-07  2.2728508e-06      833.04747          0.011 
  176001     1005   4.168095e-07  2.2736913e-06      833.03259          0.011 
Loop time of 0.158022 on 2 procs for 500 steps with 1005 atoms, finish time Tue Oct  9 09:28:36 2018


Pair  time (%) = 0.080986 (51.2497)
Neigh time (%) = 0 (0)
Comm  time (%) = 0.0255931 (16.1959)
Outpt time (%) = 4.4205e-05 (0.0279739)
Other time (%) = 0.051399 (32.5264)

Nlocal:    502.5 ave 546 max 459 min
Histogram: 1 0 0 0 0 0 0 0 0 1
Nghost:    32 ave 33 max 31 min
Histogram: 1 0 0 0 0 0 0 0 0 1
Neighs:    2841.5 ave 3099 max 2584 min
Histogram: 1 0 0 0 0 0 0 0 0 1

Total # of neighbors = 5683
Ave neighs/atom = 5.65473
Neighbor list builds = 0
Dangerous builds = 0
set region total property/atom Temp 600.000000 
  1005 settings made for property/atom
run 500    
Setting up run at Tue Oct  9 09:28:36 2018

Memory usage per processor = 10.3792 Mbytes
    Step    Atoms         KinEng            rke       heattran         Volume 
  176001     1005   4.168095e-07  2.2736913e-06      840.47342          0.011 
CFD Coupling established at step 176100
CFD Coupling established at step 176200
CFD Coupling established at step 176300
CFD Coupling established at step 176400
CFD Coupling established at step 176500
  176501     1005  4.9893396e-07  2.7067008e-06      833.04739          0.011 
Loop time of 0.154749 on 2 procs for 500 steps with 1005 atoms, finish time Tue Oct  9 09:28:36 2018


Pair  time (%) = 0.0803069 (51.895)
Neigh time (%) = 0 (0)
Comm  time (%) = 0.0238028 (15.3816)
Outpt time (%) = 2.3068e-05 (0.0149068)
Other time (%) = 0.050616 (32.7085)

Nlocal:    502.5 ave 546 max 459 min
Histogram: 1 0 0 0 0 0 0 0 0 1
Nghost:    32 ave 33 max 31 min
Histogram: 1 0 0 0 0 0 0 0 0 1
Neighs:    2841.5 ave 3099 max 2584 min
Histogram: 1 0 0 0 0 0 0 0 0 1

Total # of neighbors = 5683
Ave neighs/atom = 5.65473
Neighbor list builds = 0
Dangerous builds = 0
set region total property/atom Temp 600.000000 
  1005 settings made for property/atom
run 500    
Setting up run at Tue Oct  9 09:28:36 2018

Memory usage per processor = 10.3792 Mbytes
    Step    Atoms         KinEng            rke       heattran         Volume 
  176501     1005  4.9893396e-07  2.7067008e-06      840.47342          0.011 
CFD Coupling established at step 176600
CFD Coupling established at step 176700
CFD Coupling established at step 176800
CFD Coupling established at step 176900
CFD Coupling established at step 177000
  177000     1005  5.8467223e-07  3.1573973e-06      833.07658          0.011 
  177001     1005  5.8484086e-07  3.1583132e-06      833.06175          0.011 
Loop time of 0.141589 on 2 procs for 500 steps with 1005 atoms, finish time Tue Oct  9 09:28:36 2018


Pair  time (%) = 0.0754799 (53.3092)
Neigh time (%) = 0 (0)
Comm  time (%) = 0.0181858 (12.8441)
Outpt time (%) = 4.5997e-05 (0.0324864)
Other time (%) = 0.0478771 (33.8142)

Nlocal:    502.5 ave 546 max 459 min
Histogram: 1 0 0 0 0 0 0 0 0 1
Nghost:    32 ave 33 max 31 min
Histogram: 1 0 0 0 0 0 0 0 0 1
Neighs:    2841.5 ave 3099 max 2584 min
Histogram: 1 0 0 0 0 0 0 0 0 1

Total # of neighbors = 5683
Ave neighs/atom = 5.65473
Neighbor list builds = 0
Dangerous builds = 0
set region total property/atom Temp 600.000000 
  1005 settings made for property/atom
run 500    
Setting up run at Tue Oct  9 09:28:36 2018

Memory usage per processor = 10.3792 Mbytes
    Step    Atoms         KinEng            rke       heattran         Volume 
  177001     1005  5.8484086e-07  3.1583132e-06      840.47342          0.011 
CFD Coupling established at step 177100
CFD Coupling established at step 177200
CFD Coupling established at step 177300
CFD Coupling established at step 177400
CFD Coupling established at step 177500
  177501     1005  6.6667522e-07  3.6208449e-06       833.0757          0.011 
Loop time of 0.141122 on 2 procs for 500 steps with 1005 atoms, finish time Tue Oct  9 09:28:37 2018


Pair  time (%) = 0.0754938 (53.4955)
Neigh time (%) = 0 (0)
Comm  time (%) = 0.0178307 (12.635)
Outpt time (%) = 2.1131e-05 (0.0149736)
Other time (%) = 0.0477761 (33.8545)

Nlocal:    502.5 ave 546 max 459 min
Histogram: 1 0 0 0 0 0 0 0 0 1
Nghost:    32 ave 33 max 31 min
Histogram: 1 0 0 0 0 0 0 0 0 1
Neighs:    2841.5 ave 3099 max 2584 min
Histogram: 1 0 0 0 0 0 0 0 0 1

Total # of neighbors = 5683
Ave neighs/atom = 5.65473
Neighbor list builds = 0
Dangerous builds = 0
set region total property/atom Temp 600.000000 
  1005 settings made for property/atom
run 500    
Setting up run at Tue Oct  9 09:28:37 2018

Memory usage per processor = 10.3792 Mbytes
    Step    Atoms         KinEng            rke       heattran         Volume 
  177501     1005  6.6667522e-07  3.6208449e-06      840.47342          0.011 
CFD Coupling established at step 177600
CFD Coupling established at step 177700
CFD Coupling established at step 177800
CFD Coupling established at step 177900
CFD Coupling established at step 178000
  178000     1005  7.4837637e-07  4.0910716e-06        833.104          0.011 
  178001     1005  7.4854605e-07  4.0920223e-06      833.08923          0.011 
Loop time of 0.135123 on 2 procs for 500 steps with 1005 atoms, finish time Tue Oct  9 09:28:37 2018


Pair  time (%) = 0.0735405 (54.4249)
Neigh time (%) = 0 (0)
Comm  time (%) = 0.0148387 (10.9816)
Outpt time (%) = 3.7216e-05 (0.0275424)
Other time (%) = 0.0467064 (34.5659)

Nlocal:    502.5 ave 546 max 459 min
Histogram: 1 0 0 0 0 0 0 0 0 1
Nghost:    32 ave 33 max 31 min
Histogram: 1 0 0 0 0 0 0 0 0 1
Neighs:    2841.5 ave 3099 max 2584 min
Histogram: 1 0 0 0 0 0 0 0 0 1

Total # of neighbors = 5683
Ave neighs/atom = 5.65473
Neighbor list builds = 0
Dangerous builds = 0
set region total property/atom Temp 600.000000 
  1005 settings made for property/atom
run 500    
Setting up run at Tue Oct  9 09:28:37 2018

Memory usage per processor = 10.3792 Mbytes
    Step    Atoms         KinEng            rke       heattran         Volume 
  178001     1005  7.4854605e-07  4.0920223e-06      840.47342          0.011 
CFD Coupling established at step 178100
CFD Coupling established at step 178200
CFD Coupling established at step 178300
CFD Coupling established at step 178400
CFD Coupling established at step 178500
  178501     1005  8.3694639e-07  4.5699976e-06      833.10234          0.011 
Loop time of 0.135209 on 2 procs for 500 steps with 1005 atoms, finish time Tue Oct  9 09:28:37 2018


Pair  time (%) = 0.073605 (54.4378)
Neigh time (%) = 0 (0)
Comm  time (%) = 0.0149643 (11.0675)
Outpt time (%) = 2.1158e-05 (0.0156483)
Other time (%) = 0.0466189 (34.479)

Nlocal:    502.5 ave 546 max 459 min
Histogram: 1 0 0 0 0 0 0 0 0 1
Nghost:    32 ave 33 max 31 min
Histogram: 1 0 0 0 0 0 0 0 0 1
Neighs:    2841.5 ave 3099 max 2584 min
Histogram: 1 0 0 0 0 0 0 0 0 1

Total # of neighbors = 5683
Ave neighs/atom = 5.65473
Neighbor list builds = 0
Dangerous builds = 0
set region total property/atom Temp 600.000000 
  1005 settings made for property/atom
run 500    
Setting up run at Tue Oct  9 09:28:37 2018

Memory usage per processor = 10.3792 Mbytes
    Step    Atoms         KinEng            rke       heattran         Volume 
  178501     1005  8.3694639e-07  4.5699976e-06      840.47342          0.011 
CFD Coupling established at step 178600
CFD Coupling established at step 178700
CFD Coupling established at step 178800
CFD Coupling established at step 178900
CFD Coupling established at step 179000
  179000     1005  9.2734967e-07  5.0464473e-06      833.12976          0.011 
  179001     1005  9.2752659e-07  5.0473949e-06      833.11504          0.011 
Loop time of 0.140501 on 2 procs for 500 steps with 1005 atoms, finish time Tue Oct  9 09:28:37 2018


Pair  time (%) = 0.075302 (53.5954)
Neigh time (%) = 0 (0)
Comm  time (%) = 0.0175781 (12.511)
Outpt time (%) = 4.3235e-05 (0.030772)
Other time (%) = 0.0475776 (33.8628)

Nlocal:    502.5 ave 546 max 459 min
Histogram: 1 0 0 0 0 0 0 0 0 1
Nghost:    32 ave 33 max 31 min
Histogram: 1 0 0 0 0 0 0 0 0 1
Neighs:    2841.5 ave 3099 max 2584 min
Histogram: 1 0 0 0 0 0 0 0 0 1

Total # of neighbors = 5683
Ave neighs/atom = 5.65473
Neighbor list builds = 0
Dangerous builds = 0
set region total property/atom Temp 600.000000 
  1005 settings made for property/atom
run 500    
Setting up run at Tue Oct  9 09:28:37 2018

Memory usage per processor = 10.3792 Mbytes
    Step    Atoms         KinEng            rke       heattran         Volume 
  179001     1005  9.2752659e-07  5.0473949e-06      840.47342          0.011 
CFD Coupling established at step 179100
CFD Coupling established at step 179200
CFD Coupling established at step 179300
CFD Coupling established at step 179400
CFD Coupling established at step 179500
  179501     1005  1.0121328e-06   5.514618e-06      833.12734          0.011 
Loop time of 0.136971 on 2 procs for 500 steps with 1005 atoms, finish time Tue Oct  9 09:28:37 2018


Pair  time (%) = 0.074392 (54.3123)
Neigh time (%) = 0 (0)
Comm  time (%) = 0.0153561 (11.2112)
Outpt time (%) = 2.1403e-05 (0.015626)
Other time (%) = 0.0472012 (34.4608)

Nlocal:    502.5 ave 546 max 459 min
Histogram: 1 0 0 0 0 0 0 0 0 1
Nghost:    32 ave 33 max 31 min
Histogram: 1 0 0 0 0 0 0 0 0 1
Neighs:    2841.5 ave 3099 max 2584 min
Histogram: 1 0 0 0 0 0 0 0 0 1

Total # of neighbors = 5683
Ave neighs/atom = 5.65473
Neighbor list builds = 0
Dangerous builds = 0
set region total property/atom Temp 600.000000 
  1005 settings made for property/atom
run 500    
Setting up run at Tue Oct  9 09:28:37 2018

[...]
Dangerous builds = 0
set region total property/atom Temp 600.000000 
  1005 settings made for property/atom
run 500    
Setting up run at Tue Oct  9 09:29:11 2018

Memory usage per processor = 10.3792 Mbytes
    Step    Atoms         KinEng            rke       heattran         Volume 
  292001     1005  7.0573311e-07   3.917561e-06      840.47342          0.011 
CFD Coupling established at step 292100
CFD Coupling established at step 292200
CFD Coupling established at step 292300
CFD Coupling established at step 292400
CFD Coupling established at step 292500
  292501     1005  7.9141979e-07  4.3813124e-06      833.35318          0.011 
Loop time of 0.139322 on 2 procs for 500 steps with 1005 atoms, finish time Tue Oct  9 09:29:11 2018


Pair  time (%) = 0.0757737 (54.3875)
Neigh time (%) = 0 (0)
Comm  time (%) = 0.0155071 (11.1304)
Outpt time (%) = 2.0881e-05 (0.0149876)
Other time (%) = 0.0480202 (34.4671)

Nlocal:    502.5 ave 546 max 459 min
Histogram: 1 0 0 0 0 0 0 0 0 1
Nghost:    32 ave 33 max 31 min
Histogram: 1 0 0 0 0 0 0 0 0 1
Neighs:    2841 ave 3098 max 2584 min
Histogram: 1 0 0 0 0 0 0 0 0 1

Total # of neighbors = 5682
Ave neighs/atom = 5.65373
Neighbor list builds = 0
Dangerous builds = 0
set region total property/atom Temp 600.000000 
  1005 settings made for property/atom
run 500    
Setting up run at Tue Oct  9 09:29:11 2018

Memory usage per processor = 10.3792 Mbytes
    Step    Atoms         KinEng            rke       heattran         Volume 
  292501     1005  7.9141979e-07  4.3813124e-06      840.47342          0.011 
CFD Coupling established at step 292600
CFD Coupling established at step 292700
CFD Coupling established at step 292800
CFD Coupling established at step 292900
CFD Coupling established at step 293000
  293000     1005  8.7686286e-07  4.8439313e-06      833.36743          0.011 
  293001     1005  8.7703342e-07  4.8448546e-06      833.35319          0.011 
Loop time of 0.140208 on 2 procs for 500 steps with 1005 atoms, finish time Tue Oct  9 09:29:11 2018


Pair  time (%) = 0.0761435 (54.3077)
Neigh time (%) = 0 (0)
Comm  time (%) = 0.0159852 (11.4011)
Outpt time (%) = 3.7742e-05 (0.0269186)
Other time (%) = 0.0480411 (34.2642)

Nlocal:    502.5 ave 546 max 459 min
Histogram: 1 0 0 0 0 0 0 0 0 1
Nghost:    32 ave 33 max 31 min
Histogram: 1 0 0 0 0 0 0 0 0 1
Neighs:    2841 ave 3098 max 2584 min
Histogram: 1 0 0 0 0 0 0 0 0 1

Total # of neighbors = 5682
Ave neighs/atom = 5.65373
Neighbor list builds = 0
Dangerous builds = 0
set region total property/atom Temp 600.000000 
  1005 settings made for property/atom
run 500    
Setting up run at Tue Oct  9 09:29:11 2018

Memory usage per processor = 10.3792 Mbytes
    Step    Atoms         KinEng            rke       heattran         Volume 
  293001     1005  8.7703342e-07  4.8448546e-06      840.47342          0.011 
CFD Coupling established at step 293100
CFD Coupling established at step 293200
CFD Coupling established at step 293300
CFD Coupling established at step 293400
CFD Coupling established at step 293500
  293501     1005  9.6152981e-07  5.3026214e-06      833.35319          0.011 
Loop time of 0.136729 on 2 procs for 500 steps with 1005 atoms, finish time Tue Oct  9 09:29:11 2018


Pair  time (%) = 0.0742564 (54.3092)
Neigh time (%) = 0 (0)
Comm  time (%) = 0.0152678 (11.1665)
Outpt time (%) = 2.09595e-05 (0.0153292)
Other time (%) = 0.0471837 (34.5089)

Nlocal:    502.5 ave 546 max 459 min
Histogram: 1 0 0 0 0 0 0 0 0 1
Nghost:    32 ave 33 max 31 min
Histogram: 1 0 0 0 0 0 0 0 0 1
Neighs:    2841 ave 3098 max 2584 min
Histogram: 1 0 0 0 0 0 0 0 0 1

Total # of neighbors = 5682
Ave neighs/atom = 5.65373
Neighbor list builds = 0
Dangerous builds = 0
set region total property/atom Temp 600.000000 
  1005 settings made for property/atom
run 500    
Setting up run at Tue Oct  9 09:29:11 2018

Memory usage per processor = 10.3792 Mbytes
    Step    Atoms         KinEng            rke       heattran         Volume 
  293501     1005  9.6152981e-07  5.3026214e-06      840.47342          0.011 
CFD Coupling established at step 293600
CFD Coupling established at step 293700
CFD Coupling established at step 293800
CFD Coupling established at step 293900
CFD Coupling established at step 294000
  294000     1005  1.0437171e-06  5.7482292e-06      833.36744          0.011 
  294001     1005   1.043879e-06  5.7491075e-06       833.3532          0.011 
Loop time of 0.142012 on 2 procs for 500 steps with 1005 atoms, finish time Tue Oct  9 09:29:11 2018


Pair  time (%) = 0.0753846 (53.0832)
Neigh time (%) = 0 (0)
Comm  time (%) = 0.0184672 (13.004)
Outpt time (%) = 4.0116e-05 (0.0282483)
Other time (%) = 0.0481201 (33.8845)

Nlocal:    502.5 ave 546 max 459 min
Histogram: 1 0 0 0 0 0 0 0 0 1
Nghost:    32 ave 33 max 31 min
Histogram: 1 0 0 0 0 0 0 0 0 1
Neighs:    2841 ave 3098 max 2584 min
Histogram: 1 0 0 0 0 0 0 0 0 1

Total # of neighbors = 5682
Ave neighs/atom = 5.65373
Neighbor list builds = 0
Dangerous builds = 0
set region total property/atom Temp 600.000000 
  1005 settings made for property/atom
run 500    
Setting up run at Tue Oct  9 09:29:11 2018

Memory usage per processor = 10.3792 Mbytes
    Step    Atoms         KinEng            rke       heattran         Volume 
  294001     1005   1.043879e-06  5.7491075e-06      840.47342          0.011 
CFD Coupling established at step 294100
CFD Coupling established at step 294200
CFD Coupling established at step 294300
CFD Coupling established at step 294400
CFD Coupling established at step 294500
  294501     1005  1.1230842e-06  6.1789197e-06       833.3532          0.011 
Loop time of 0.140371 on 2 procs for 500 steps with 1005 atoms, finish time Tue Oct  9 09:29:12 2018


Pair  time (%) = 0.0750486 (53.4644)
Neigh time (%) = 0 (0)
Comm  time (%) = 0.0175879 (12.5296)
Outpt time (%) = 1.99315e-05 (0.0141991)
Other time (%) = 0.0477148 (33.9918)

Nlocal:    502.5 ave 546 max 459 min
Histogram: 1 0 0 0 0 0 0 0 0 1
Nghost:    32 ave 33 max 31 min
Histogram: 1 0 0 0 0 0 0 0 0 1
Neighs:    2841 ave 3098 max 2584 min
Histogram: 1 0 0 0 0 0 0 0 0 1

Total # of neighbors = 5682
Ave neighs/atom = 5.65373
Neighbor list builds = 0
Dangerous builds = 0
set region total property/atom Temp 600.000000 
  1005 settings made for property/atom
run 500    
Setting up run at Tue Oct  9 09:29:12 2018

Memory usage per processor = 10.3792 Mbytes
    Step    Atoms         KinEng            rke       heattran         Volume 
  294501     1005  1.1230842e-06  6.1789197e-06      840.47342          0.011 
CFD Coupling established at step 294600
CFD Coupling established at step 294700
CFD Coupling established at step 294800
CFD Coupling established at step 294900
CFD Coupling established at step 295000
  295000     1005  1.1980604e-06  6.5860577e-06      833.36745          0.011 
  295001     1005   1.198206e-06  6.5868485e-06      833.35321          0.011 
Loop time of 0.154687 on 2 procs for 500 steps with 1005 atoms, finish time Tue Oct  9 09:29:12 2018


Pair  time (%) = 0.0798268 (51.6053)
Neigh time (%) = 0 (0)
Comm  time (%) = 0.024534 (15.8604)
Outpt time (%) = 4.28926e-05 (0.0277286)
Other time (%) = 0.0502835 (32.5066)

Nlocal:    502.5 ave 546 max 459 min
Histogram: 1 0 0 0 0 0 0 0 0 1
Nghost:    32 ave 33 max 31 min
Histogram: 1 0 0 0 0 0 0 0 0 1
Neighs:    2841 ave 3098 max 2584 min
Histogram: 1 0 0 0 0 0 0 0 0 1

Total # of neighbors = 5682
Ave neighs/atom = 5.65373
Neighbor list builds = 0
Dangerous builds = 0
set region total property/atom Temp 600.000000 
  1005 settings made for property/atom
run 500    
Setting up run at Tue Oct  9 09:29:12 2018

Memory usage per processor = 10.3792 Mbytes
    Step    Atoms         KinEng            rke       heattran         Volume 
  295001     1005   1.198206e-06  6.5868485e-06      840.47342          0.011 
CFD Coupling established at step 295100
CFD Coupling established at step 295200
CFD Coupling established at step 295300
CFD Coupling established at step 295400
CFD Coupling established at step 295500
  295501     1005  1.2683215e-06  6.9679535e-06      833.35321          0.011 
Loop time of 0.148386 on 2 procs for 500 steps with 1005 atoms, finish time Tue Oct  9 09:29:12 2018


Pair  time (%) = 0.0780258 (52.583)
Neigh time (%) = 0 (0)
Comm  time (%) = 0.0209584 (14.1243)
Outpt time (%) = 2.11615e-05 (0.0142611)
Other time (%) = 0.0493806 (33.2785)

Nlocal:    502.5 ave 546 max 459 min
Histogram: 1 0 0 0 0 0 0 0 0 1
Nghost:    32 ave 33 max 31 min
Histogram: 1 0 0 0 0 0 0 0 0 1
Neighs:    2841 ave 3098 max 2584 min
Histogram: 1 0 0 0 0 0 0 0 0 1

Total # of neighbors = 5682
Ave neighs/atom = 5.65373
Neighbor list builds = 0
Dangerous builds = 0
set region total property/atom Temp 600.000000 
  1005 settings made for property/atom
run 500    
Setting up run at Tue Oct  9 09:29:12 2018

Memory usage per processor = 10.3792 Mbytes
    Step    Atoms         KinEng            rke       heattran         Volume 
  295501     1005  1.2683215e-06  6.9679535e-06      840.47342          0.011 
CFD Coupling established at step 295600
CFD Coupling established at step 295700
CFD Coupling established at step 295800
CFD Coupling established at step 295900
CFD Coupling established at step 296000
  296000     1005  1.3324582e-06   7.316941e-06      833.36746          0.011 
  296001     1005  1.3325805e-06  7.3176061e-06      833.35322          0.011 
Loop time of 0.147368 on 2 procs for 500 steps with 1005 atoms, finish time Tue Oct  9 09:29:12 2018


Pair  time (%) = 0.0777992 (52.7926)
Neigh time (%) = 0 (0)
Comm  time (%) = 0.0202162 (13.7182)
Outpt time (%) = 4.94996e-05 (0.0335892)
Other time (%) = 0.0493029 (33.4557)

Nlocal:    502.5 ave 546 max 459 min
Histogram: 1 0 0 0 0 0 0 0 0 1
Nghost:    32 ave 33 max 31 min
Histogram: 1 0 0 0 0 0 0 0 0 1
Neighs:    2841 ave 3098 max 2584 min
Histogram: 1 0 0 0 0 0 0 0 0 1

Total # of neighbors = 5682
Ave neighs/atom = 5.65373
Neighbor list builds = 0
Dangerous builds = 0
set region total property/atom Temp 600.000000 
  1005 settings made for property/atom
run 500    
Setting up run at Tue Oct  9 09:29:12 2018

Memory usage per processor = 10.3792 Mbytes
    Step    Atoms         KinEng            rke       heattran         Volume 
  296001     1005  1.3325805e-06  7.3176061e-06      840.47342          0.011 
CFD Coupling established at step 296100
CFD Coupling established at step 296200
CFD Coupling established at step 296300
CFD Coupling established at step 296400
CFD Coupling established at step 296500
  296501     1005  1.3902055e-06  7.6315479e-06      833.35322          0.011 
Loop time of 0.14185 on 2 procs for 500 steps with 1005 atoms, finish time Tue Oct  9 09:29:12 2018


Pair  time (%) = 0.0756062 (53.3)
Neigh time (%) = 0 (0)
Comm  time (%) = 0.0179176 (12.6314)
Outpt time (%) = 2.17155e-05 (0.0153087)
Other time (%) = 0.0483046 (34.0533)

Nlocal:    502.5 ave 546 max 459 min
Histogram: 1 0 0 0 0 0 0 0 0 1
Nghost:    32 ave 33 max 31 min
Histogram: 1 0 0 0 0 0 0 0 0 1
Neighs:    2841 ave 3098 max 2584 min
Histogram: 1 0 0 0 0 0 0 0 0 1

Total # of neighbors = 5682
Ave neighs/atom = 5.65373
Neighbor list builds = 0
Dangerous builds = 0
set region total property/atom Temp 600.000000 
  1005 settings made for property/atom
run 500    
Setting up run at Tue Oct  9 09:29:12 2018

Memory usage per processor = 10.3792 Mbytes
    Step    Atoms         KinEng            rke       heattran         Volume 
  296501     1005  1.3902055e-06  7.6315479e-06      840.47342          0.011 
CFD Coupling established at step 296600
CFD Coupling established at step 296700
CFD Coupling established at step 296800
CFD Coupling established at step 296900
CFD Coupling established at step 297000
  297000     1005  1.4404059e-06  7.9054347e-06      833.36747          0.011 
  297001     1005  1.4404988e-06  7.9059418e-06      833.35323          0.011 
Loop time of 0.139167 on 2 procs for 500 steps with 1005 atoms, finish time Tue Oct  9 09:29:12 2018


Pair  time (%) = 0.0746659 (53.6518)
Neigh time (%) = 0 (0)
Comm  time (%) = 0.0168954 (12.1403)
Outpt time (%) = 4.5051e-05 (0.0323718)
Other time (%) = 0.0475612 (34.1755)

Nlocal:    502.5 ave 546 max 459 min
Histogram: 1 0 0 0 0 0 0 0 0 1
Nghost:    32 ave 33 max 31 min
Histogram: 1 0 0 0 0 0 0 0 0 1
Neighs:    2841 ave 3098 max 2584 min
Histogram: 1 0 0 0 0 0 0 0 0 1

Total # of neighbors = 5682
Ave neighs/atom = 5.65373
Neighbor list builds = 0
Dangerous builds = 0
set region total property/atom Temp 600.000000 
  1005 settings made for property/atom
run 500    
Setting up run at Tue Oct  9 09:29:12 2018

Memory usage per processor = 10.3792 Mbytes
    Step    Atoms         KinEng            rke       heattran         Volume 
  297001     1005  1.4404988e-06  7.9059418e-06      840.47342          0.011 
CFD Coupling established at step 297100
CFD Coupling established at step 297200
CFD Coupling established at step 297300
CFD Coupling established at step 297400
CFD Coupling established at step 297500
  297501     1005  1.4828597e-06  8.1374404e-06      833.35323          0.011 
Loop time of 0.135682 on 2 procs for 500 steps with 1005 atoms, finish time Tue Oct  9 09:29:12 2018


Pair  time (%) = 0.0742178 (54.6998)
Neigh time (%) = 0 (0)
Comm  time (%) = 0.0142874 (10.5301)
Outpt time (%) = 2.03785e-05 (0.0150193)
Other time (%) = 0.0471564 (34.7551)

Nlocal:    502.5 ave 546 max 459 min
Histogram: 1 0 0 0 0 0 0 0 0 1
Nghost:    32 ave 33 max 31 min
Histogram: 1 0 0 0 0 0 0 0 0 1
Neighs:    2841 ave 3098 max 2584 min
Histogram: 1 0 0 0 0 0 0 0 0 1

Total # of neighbors = 5682
Ave neighs/atom = 5.65373
Neighbor list builds = 0
Dangerous builds = 0
set region total property/atom Temp 600.000000 
  1005 settings made for property/atom
run 500    
Setting up run at Tue Oct  9 09:29:12 2018

Memory usage per processor = 10.3792 Mbytes
    Step    Atoms         KinEng            rke       heattran         Volume 
  297501     1005  1.4828597e-06  8.1374404e-06      840.47342          0.011 
CFD Coupling established at step 297600
CFD Coupling established at step 297700
CFD Coupling established at step 297800
CFD Coupling established at step 297900
CFD Coupling established at step 298000
  298000     1005  1.5169241e-06  8.3227232e-06      833.36748          0.011 
  298001     1005  1.5169836e-06  8.3230472e-06      833.35324          0.011 
Loop time of 0.143661 on 2 procs for 500 steps with 1005 atoms, finish time Tue Oct  9 09:29:13 2018


Pair  time (%) = 0.076763 (53.4333)
Neigh time (%) = 0 (0)
Comm  time (%) = 0.0183689 (12.7862)
Outpt time (%) = 5.79245e-05 (0.0403202)
Other time (%) = 0.0484714 (33.7401)

Nlocal:    502.5 ave 546 max 459 min
Histogram: 1 0 0 0 0 0 0 0 0 1
Nghost:    32 ave 33 max 31 min
Histogram: 1 0 0 0 0 0 0 0 0 1
Neighs:    2841 ave 3098 max 2584 min
Histogram: 1 0 0 0 0 0 0 0 0 1

Total # of neighbors = 5682
Ave neighs/atom = 5.65373
Neighbor list builds = 0
Dangerous builds = 0
set region total property/atom Temp 600.000000 
  1005 settings made for property/atom
run 500    
Setting up run at Tue Oct  9 09:29:13 2018

Memory usage per processor = 10.3792 Mbytes
    Step    Atoms         KinEng            rke       heattran         Volume 
  298001     1005  1.5169836e-06  8.3230472e-06      840.47342          0.011 
CFD Coupling established at step 298100
CFD Coupling established at step 298200
CFD Coupling established at step 298300
CFD Coupling established at step 298400
CFD Coupling established at step 298500
  298501     1005   1.541904e-06  8.4608826e-06      833.35324          0.011 
Loop time of 0.141117 on 2 procs for 500 steps with 1005 atoms, finish time Tue Oct  9 09:29:13 2018


Pair  time (%) = 0.0752876 (53.3514)
Neigh time (%) = 0 (0)
Comm  time (%) = 0.0177321 (12.5656)
Outpt time (%) = 2.03809e-05 (0.0144426)
Other time (%) = 0.0480765 (34.0686)

Nlocal:    502.5 ave 546 max 459 min
Histogram: 1 0 0 0 0 0 0 0 0 1
Nghost:    32 ave 33 max 31 min
Histogram: 1 0 0 0 0 0 0 0 0 1
Neighs:    2841 ave 3098 max 2584 min
Histogram: 1 0 0 0 0 0 0 0 0 1

Total # of neighbors = 5682
Ave neighs/atom = 5.65373
Neighbor list builds = 0
Dangerous builds = 0
set region total property/atom Temp 600.000000 
  1005 settings made for property/atom
run 500    
Setting up run at Tue Oct  9 09:29:13 2018

Memory usage per processor = 10.3792 Mbytes
    Step    Atoms         KinEng            rke       heattran         Volume 
  298501     1005   1.541904e-06  8.4608826e-06      840.47342          0.011 
CFD Coupling established at step 298600
CFD Coupling established at step 298700
CFD Coupling established at step 298800
CFD Coupling established at step 298900
CFD Coupling established at step 299000
  299000     1005  1.5577458e-06  8.5487926e-06      833.36748          0.011 
  299001     1005  1.5577685e-06  8.5489181e-06      833.35324          0.011 
Loop time of 0.144146 on 2 procs for 500 steps with 1005 atoms, finish time Tue Oct  9 09:29:13 2018


Pair  time (%) = 0.0768103 (53.2863)
Neigh time (%) = 0 (0)
Comm  time (%) = 0.0186761 (12.9564)
Outpt time (%) = 5.89545e-05 (0.040899)
Other time (%) = 0.0486011 (33.7165)

Nlocal:    502.5 ave 546 max 459 min
Histogram: 1 0 0 0 0 0 0 0 0 1
Nghost:    32 ave 33 max 31 min
Histogram: 1 0 0 0 0 0 0 0 0 1
Neighs:    2841 ave 3098 max 2584 min
Histogram: 1 0 0 0 0 0 0 0 0 1

Total # of neighbors = 5682
Ave neighs/atom = 5.65373
Neighbor list builds = 0
Dangerous builds = 0
set region total property/atom Temp 600.000000 
  1005 settings made for property/atom
run 500    
Setting up run at Tue Oct  9 09:29:13 2018

Memory usage per processor = 10.3792 Mbytes
    Step    Atoms         KinEng            rke       heattran         Volume 
  299001     1005  1.5577685e-06  8.5489181e-06      840.47342          0.011 
CFD Coupling established at step 299100
CFD Coupling established at step 299200
CFD Coupling established at step 299300
CFD Coupling established at step 299400
CFD Coupling established at step 299500
  299501     1005  1.5643636e-06  8.5860953e-06      833.35325          0.011 
Loop time of 0.142241 on 2 procs for 500 steps with 1005 atoms, finish time Tue Oct  9 09:29:13 2018


Pair  time (%) = 0.0756161 (53.1606)
Neigh time (%) = 0 (0)
Comm  time (%) = 0.0186551 (13.1151)
Outpt time (%) = 1.9849e-05 (0.0139545)
Other time (%) = 0.04795 (33.7104)

Nlocal:    502.5 ave 546 max 459 min
Histogram: 1 0 0 0 0 0 0 0 0 1
Nghost:    32 ave 33 max 31 min
Histogram: 1 0 0 0 0 0 0 0 0 1
Neighs:    2841 ave 3098 max 2584 min
Histogram: 1 0 0 0 0 0 0 0 0 1

Total # of neighbors = 5682
Ave neighs/atom = 5.65373
Neighbor list builds = 0
Dangerous builds = 0
set region total property/atom Temp 600.000000 
  1005 settings made for property/atom
run 500    
Setting up run at Tue Oct  9 09:29:13 2018

Memory usage per processor = 10.3792 Mbytes
    Step    Atoms         KinEng            rke       heattran         Volume 
  299501     1005  1.5643636e-06  8.5860953e-06      840.47342          0.011 
CFD Coupling established at step 299600
CFD Coupling established at step 299700
CFD Coupling established at step 299800
CFD Coupling established at step 299900
CFD Coupling established at step 300000
  300000     1005  1.5614975e-06  8.5721295e-06      833.36749          0.011 
  300001     1005  1.5614824e-06  8.5720502e-06      833.35325          0.011 
Loop time of 0.146204 on 2 procs for 500 steps with 1005 atoms, finish time Tue Oct  9 09:29:13 2018


Pair  time (%) = 0.0763622 (52.2299)
Neigh time (%) = 0 (0)
Comm  time (%) = 0.0190207 (13.0097)
Outpt time (%) = 0.00262717 (1.79692)
Other time (%) = 0.0481939 (32.9635)

Nlocal:    502.5 ave 546 max 459 min
Histogram: 1 0 0 0 0 0 0 0 0 1
Nghost:    32 ave 33 max 31 min
Histogram: 1 0 0 0 0 0 0 0 0 1
Neighs:    2841 ave 3098 max 2584 min
Histogram: 1 0 0 0 0 0 0 0 0 1

Total # of neighbors = 5682
Ave neighs/atom = 5.65373
Neighbor list builds = 0
Dangerous builds = 0
set region total property/atom Temp 600.000000 
  1005 settings made for property/atom
