ITEM: TIMESTEP
20000
ITEM: NUMBER OF ATOMS
10000
ITEM: BOX BOUNDS mm mm mm
-0.015 0.015
-0.015 0.015
-0.001 0.0554
ITEM: ATOMS id type x y z vx vy vz fx fy fz f_dragforce[1] f_dragforce[2] f_dragforce[3] radius 
1359 1 -0.00149305 -0.013266 0.000499768 0.000638583 0.000223709 -6.76644e-05 2.84469e-07 2.07575e-08 -1.75919e-07 9.71534e-07 5.37944e-07 2.0291e-06 0.0005 
637 1 -0.00304596 -0.0122379 0.00049964 0.000345986 -5.95794e-06 -6.88442e-05 2.59018e-07 2.51076e-07 -6.79271e-08 1.19595e-06 4.07818e-07 1.23529e-06 0.0005 
1496 1 -0.00206849 -0.0124482 0.000499689 0.000322859 1.68911e-05 -0.000124347 2.57593e-07 -5.5995e-07 -2.37042e-07 1.23426e-06 7.94972e-07 1.43184e-06 0.0005 
502 1 -0.000774309 -0.0125245 0.000499534 0.000286571 0.000335864 -0.000284279 6.96798e-07 -5.86986e-07 -4.1984e-07 8.44034e-07 9.92871e-07 1.31574e-06 0.0005 
1195 1 -0.00707202 -0.0111095 0.000499681 -0.000543563 -0.000546983 -0.000116908 3.71596e-07 -9.74618e-08 -9.02884e-08 -3.31452e-08 -2.1332e-07 1.6398e-06 0.0005 
1356 1 -0.00631164 -0.0117589 0.000499762 0.000292475 0.000352375 2.53085e-06 8.08195e-07 -1.7803e-07 2.57944e-07 2.07517e-07 -1.03496e-07 1.80533e-06 0.0005 
939 1 -0.00514902 -0.011658 0.000499574 0.000302158 9.98627e-05 -5.27571e-05 -6.58632e-08 -1.8814e-07 1.06252e-07 6.80336e-07 -9.62301e-08 1.33334e-06 0.0005 
1758 1 -0.00414477 -0.0116479 0.000499713 0.000760184 7.58529e-05 -5.68293e-05 2.59896e-07 -2.45659e-07 -1.03174e-07 1.12028e-06 2.10586e-08 1.10534e-06 0.0005 
656 1 -0.00322079 -0.0112534 0.00049973 0.000556146 7.88907e-05 -0.000148993 8.28163e-07 2.23505e-07 -6.30522e-07 1.71555e-06 4.05352e-07 1.04842e-06 0.0005 
758 1 -0.00220668 -0.0114577 0.000499728 0.000546696 0.000171677 -0.000285209 1.44796e-06 -5.27011e-07 -7.81419e-07 1.48843e-06 1.18922e-06 1.18808e-06 0.0005 
319 1 -0.00114611 -0.0115434 0.000499786 -0.000213312 0.000480101 -2.37483e-06 -5.10791e-07 -1.05369e-06 -3.90914e-07 1.08255e-06 1.72267e-06 1.2562e-06 0.0005 
511 1 -1.53516e-05 -0.0111125 0.0004995 0.000560825 -0.000239243 -0.000139059 -1.20896e-06 5.9795e-07 1.83119e-06 -2.16003e-07 6.9043e-07 1.29499e-06 0.0005 
1144 1 -0.00802772 -0.0106668 0.000499788 6.75855e-05 -5.12324e-05 -1.08014e-06 1.77951e-07 -2.58224e-07 4.87047e-08 -3.19239e-07 -3.36176e-07 1.60128e-06 0.0005 
353 1 -0.00577525 -0.0108786 0.000499692 0.000285513 0.00011601 6.85266e-05 -7.39138e-08 4.99123e-07 5.89067e-08 4.60142e-07 -2.46595e-07 1.23717e-06 0.0005 
1818 1 -0.00393781 -0.0105566 0.000499683 0.000509379 3.22129e-05 6.13069e-05 9.18744e-07 2.76907e-07 2.91841e-07 1.83466e-06 -4.78493e-08 1.04841e-06 0.0005 
1873 1 -0.00258567 -0.0104811 0.000499605 0.000532021 -9.53547e-05 -0.000252961 -2.89811e-07 -1.19145e-06 -9.3469e-07 2.08522e-06 2.46805e-07 1.01601e-06 0.0005 
2211 1 -0.000756859 -0.0104415 0.000499501 0.000222957 4.49205e-05 -0.00024629 1.73471e-07 -5.35774e-08 -4.09011e-07 8.06386e-07 6.87199e-07 1.14416e-06 0.0005 
647 1 -0.00885721 -0.0099887 0.000499763 8.41674e-05 -9.83637e-05 -0.000123994 -4.59063e-12 4.44879e-08 -4.55882e-08 -3.14062e-07 -4.43398e-07 1.57279e-06 0.0005 
542 1 -0.00733913 -0.00994168 0.00049958 0.000227899 -0.000188821 -4.75278e-05 2.07648e-07 -2.89684e-07 1.89123e-08 -2.88174e-07 -4.89459e-07 1.24725e-06 0.0005 
1585 1 -0.00535521 -0.00993814 0.00049958 0.000462556 -8.01978e-05 1.72707e-05 2.49109e-07 -4.28348e-07 3.05873e-10 8.74543e-07 -4.35913e-07 1.22082e-06 0.0005 
2142 1 -0.00325852 -0.00974164 0.000499563 0.000766513 -3.56437e-05 1.75088e-05 3.30867e-07 -1.74319e-07 8.05772e-07 2.62079e-06 -3.87787e-07 5.85643e-07 0.0005 
2090 1 -0.00148884 -0.00976044 0.000499741 0.00047991 0.000151359 -4.97383e-05 4.25592e-07 -1.23432e-07 3.82082e-07 1.71731e-06 -7.33369e-07 9.24515e-07 0.0005 
2330 1 -0.0088629 -0.0089856 0.000499509 9.68491e-05 -0.000131117 2.94273e-05 2.38065e-07 -1.45065e-07 1.61199e-07 -3.81684e-07 -5.03843e-07 1.14816e-06 0.0005 
733 1 -0.00680994 -0.00907148 0.000499647 9.13271e-05 -2.57885e-05 -4.57597e-05 1.89651e-07 -2.11259e-07 2.69284e-07 -1.75144e-08 -4.12959e-07 1.26695e-06 0.0005 
1443 1 -0.00575359 -0.00889046 0.000499712 7.52622e-05 -6.01244e-05 -2.20591e-05 1.88069e-07 -7.29009e-07 -8.43518e-08 6.32054e-07 -4.2917e-07 1.19385e-06 0.0005 
1221 1 -0.00475364 -0.00887034 0.000499695 0.000394106 -0.000365119 8.90733e-05 4.76285e-07 -2.32186e-07 -4.90876e-07 1.31671e-06 -5.22387e-07 1.19421e-06 0.0005 
388 1 -0.00321019 -0.0087429 0.000499786 0.000686829 -8.09167e-06 1.4523e-05 1.89489e-06 -3.85557e-07 -3.89295e-07 2.53384e-06 -8.44625e-07 5.69183e-07 0.0005 
823 1 -0.00236071 -0.00927095 0.000499624 0.000679879 -5.49712e-05 -0.000208402 1.76621e-07 -6.21957e-07 -3.3984e-07 2.54633e-06 -9.49056e-07 6.10273e-07 0.0005 
714 1 -0.0010853 -0.00881616 0.00049948 0.000329193 -0.000981202 -0.000570308 -9.25667e-07 -7.99826e-07 -2.62278e-06 1.22645e-06 -1.89781e-06 8.45951e-07 0.0005 
462 1 -8.68623e-05 -0.00886581 0.000499478 9.92163e-05 -0.000580075 -0.000594334 -7.99537e-07 -7.35846e-07 -7.9739e-07 -2.82823e-07 -1.66545e-06 1.1536e-06 0.0005 
529 1 -0.0102107 -0.00860058 0.000499809 3.12002e-05 -2.25649e-05 2.48703e-05 4.74629e-08 -1.04878e-08 2.72971e-09 2.20211e-07 -6.05452e-07 1.67974e-06 0.0005 
359 1 -0.00934108 -0.00810743 0.000499647 0.000102449 -6.09148e-05 3.03257e-05 1.86741e-07 -1.41856e-07 -2.50202e-08 -3.10115e-07 -4.30018e-07 1.22703e-06 0.0005 
1505 1 -0.00808343 -0.00835924 0.000499745 -0.000590928 0.000707319 2.70235e-05 -7.1498e-09 -4.95847e-08 4.93746e-08 -3.95853e-07 -3.07017e-07 1.14268e-06 0.0005 
2252 1 -0.00613758 -0.00796512 0.000499733 -0.000251059 -0.000219508 1.816e-05 1.04101e-07 -4.96881e-07 -9.03272e-08 2.69251e-07 -3.82931e-08 1.25732e-06 0.0005 
2042 1 -0.0023283 -0.00827159 0.000499657 0.000775137 -7.19056e-05 -0.000114092 1.68454e-06 3.94124e-07 9.50178e-07 1.8723e-06 -1.4429e-06 8.48547e-07 0.0005 
1539 1 -0.0108378 -0.00779536 0.000499784 3.28918e-05 -3.10529e-05 -6.08324e-06 2.94086e-08 1.11107e-07 -1.18263e-07 3.71975e-07 -5.65822e-07 1.97724e-06 0.0005 
986 1 -0.00814689 -0.00736131 0.000499803 -0.00349232 0.00053395 1.69889e-06 -3.41951e-07 -5.69724e-09 6.57614e-09 -5.56622e-07 -2.69768e-07 1.24696e-06 0.0005 
1847 1 -0.00710006 -0.00769367 0.000499583 -0.000463544 -0.000103301 -7.36693e-05 -1.29952e-07 -2.27055e-07 1.517e-07 -1.20881e-07 -2.82239e-08 1.30583e-06 0.0005 
1447 1 -0.00558611 -0.00710513 0.000499772 0.000568886 0.00057246 -8.0815e-05 4.11059e-07 -6.54597e-08 -8.0688e-08 3.80179e-07 1.88373e-07 1.25136e-06 0.0005 
1848 1 -0.00459342 -0.00724965 0.000499644 0.000277563 0.000439347 -8.91058e-05 1.33488e-07 3.35148e-08 6.80714e-08 7.23659e-07 1.34716e-07 1.22833e-06 0.0005 
2417 1 -0.00359323 -0.00733829 0.000499699 0.000243769 0.000804889 -4.74742e-05 4.08811e-07 -7.69723e-07 -2.53271e-07 1.00567e-06 -3.35059e-07 1.0679e-06 0.0005 
1462 1 -0.00259384 -0.00730761 0.000499443 0.000287601 -0.000112851 -0.000209478 2.75983e-07 4.79257e-08 2.69431e-07 1.1667e-06 -1.11168e-06 8.93584e-07 0.0005 
46 1 -0.00131628 -0.0078433 0.000499661 0.00030186 -0.000835426 -0.000237544 4.09024e-07 -1.86432e-07 -1.331e-08 1.26291e-06 -3.30234e-06 5.29046e-07 0.0005 
1432 1 -0.000189101 -0.00787126 0.000499618 9.30976e-05 -0.00047089 -8.21959e-05 -1.39038e-06 -1.13755e-06 1.30998e-07 2.91074e-07 -2.44219e-06 8.65399e-07 0.0005 
2195 1 -0.0115938 -0.00660331 0.000499674 0.000333026 -6.69256e-05 6.6578e-05 9.87129e-08 1.45988e-07 -7.52516e-10 6.56186e-07 -3.97051e-07 2.36881e-06 0.0005 
1429 1 -0.0105941 -0.00682554 0.000499798 -4.79817e-05 -6.06938e-05 -4.35109e-05 -1.62526e-07 -4.15588e-08 2.24349e-08 3.69282e-07 -3.85004e-07 1.43397e-06 0.0005 
551 1 -0.00960019 -0.00693512 0.000499674 -9.82271e-05 0.000100863 -1.86905e-05 2.55419e-07 -2.54135e-07 2.70738e-07 -7.53878e-08 -3.58873e-07 1.25813e-06 0.0005 
1263 1 -0.00880132 -0.00633369 0.000499809 -0.00056385 0.000682661 -7.76739e-06 1.32339e-07 2.14932e-07 -1.15056e-07 -2.30777e-07 -3.39313e-07 1.26918e-06 0.0005 
490 1 -0.00779106 -0.00634503 0.000499596 -0.000375667 -0.000357424 3.55829e-05 4.33494e-07 -2.62976e-07 1.7858e-07 -3.10301e-07 -1.18659e-07 1.28762e-06 0.0005 
1485 1 -0.00647102 -0.00658093 0.000499739 -0.00011715 0.000480125 -4.36205e-05 7.69439e-07 1.94593e-07 9.05475e-08 2.35783e-07 1.0546e-07 1.27262e-06 0.0005 
74 1 -0.00405126 -0.00638872 0.00049965 0.000221955 0.000229899 -3.74325e-05 2.61954e-07 -3.3756e-07 5.74355e-07 6.70299e-07 1.82792e-07 1.11518e-06 0.0005 
606 1 -0.010968 -0.0058203 0.000499802 -9.62282e-05 -0.000241741 1.88342e-05 1.68474e-07 1.63596e-08 -7.33282e-08 5.58192e-07 -3.25772e-07 1.59242e-06 0.0005 
1293 1 -0.00998683 -0.00601305 0.000499788 -5.03922e-06 5.77642e-06 -4.54947e-05 9.3034e-08 5.27516e-07 -9.40107e-08 4.37904e-07 -3.18e-07 1.38592e-06 0.0005 
1248 1 -0.00702267 -0.00570471 0.000499683 -0.000104812 -0.000518379 5.7786e-06 2.6841e-08 -1.92633e-07 1.55741e-07 -7.30472e-09 1.92465e-09 1.29773e-06 0.0005 
1101 1 -0.00561249 -0.00601892 0.000499599 -1.03043e-05 0.000132935 -2.52941e-05 2.75335e-07 -4.64805e-08 7.65416e-08 5.05311e-07 1.42192e-07 1.27554e-06 0.0005 
817 1 -0.00467698 -0.00560535 0.000499642 4.26017e-05 0.00049035 5.65147e-05 7.64559e-07 5.15697e-08 2.97882e-07 5.19233e-07 2.9454e-07 1.11535e-06 0.0005 
1969 1 -0.00334943 -0.00558812 0.000499617 0.000149321 -0.000145619 -6.9646e-05 -1.90339e-07 -2.30598e-07 1.43018e-07 8.21634e-08 -1.70639e-07 1.04926e-06 0.0005 
266 1 -0.00225155 -0.00609401 0.000499682 0.000222214 -0.000479011 2.28358e-05 4.41428e-08 -4.62778e-07 -1.42078e-08 6.67954e-08 -9.40525e-07 1.00895e-06 0.0005 
1477 1 -0.000925693 -0.00625227 0.000499589 0.000225243 -0.00054454 -6.12931e-05 4.8263e-07 -6.30664e-07 -2.54373e-07 7.96985e-07 -1.65792e-06 1.39585e-06 0.0005 
740 1 -8.14309e-05 -0.00559892 0.00049972 0.000507392 -0.000577326 1.71196e-05 7.81003e-07 -1.0625e-06 -3.59272e-07 8.7877e-07 -9.50995e-07 1.14818e-06 0.0005 
1091 1 -0.0121718 -0.00548391 0.000499805 0.000113297 -0.000140614 2.18173e-05 2.63301e-07 -5.24972e-07 -4.62658e-08 5.25252e-07 -3.313e-07 2.4809e-06 0.0005 
900 1 -0.0113599 -0.00490031 0.000499685 0.000177292 -0.000141241 6.06887e-05 2.08279e-07 -1.22802e-07 -8.04596e-08 4.32927e-07 -3.15911e-07 1.30414e-06 0.0005 
1315 1 -0.0103054 -0.00483391 0.00049968 0.000435236 -5.77299e-05 4.13446e-05 1.95404e-07 1.79447e-07 -2.28981e-07 4.3796e-07 -2.98057e-07 1.36337e-06 0.0005 
53 1 -0.00867488 -0.00527843 0.000499545 1.64267e-05 0.000136631 -5.31979e-05 1.4812e-08 5.40875e-08 3.7251e-07 1.35731e-07 -3.70973e-07 1.31372e-06 0.0005 
1403 1 -0.00564673 -0.00495576 0.000499676 7.22455e-06 0.000140789 5.02137e-05 1.28634e-06 5.95429e-07 4.6585e-07 4.01015e-07 8.31666e-08 1.29593e-06 0.0005 
2181 1 -0.00395501 -0.00479277 0.000499649 -5.34083e-05 -0.000189184 -2.24596e-05 3.17934e-07 4.13981e-07 1.21041e-07 1.09191e-07 -1.75416e-08 1.14411e-06 0.0005 
152 1 -0.00257422 -0.00495674 0.000499768 5.52461e-05 3.14451e-05 5.11342e-05 -9.45818e-08 -4.41468e-07 -9.61537e-08 5.30672e-09 -3.17827e-07 1.27669e-06 0.0005 
262 1 -0.000960884 -0.00509034 0.000499777 0.000547559 -7.70559e-06 -0.000100145 7.59629e-07 -7.4307e-07 -3.82079e-07 6.75624e-07 -5.75224e-07 1.39226e-06 0.0005 
890 1 -0.0125494 -0.00455402 0.000499666 0.000172368 -0.000322317 4.99341e-05 -4.7779e-07 4.99577e-07 1.32689e-06 2.85749e-07 -2.97219e-07 2.24712e-06 0.0005 
2 1 -0.010886 -0.00401985 0.000499679 0.000304382 -0.00019861 9.13449e-05 7.58482e-08 -2.29048e-07 -3.84869e-07 2.91037e-07 -2.96521e-07 1.26349e-06 0.0005 
12 1 -0.00938184 -0.00445041 0.000499808 0.00019886 0.000464797 -3.28497e-05 -4.44777e-09 -3.60984e-07 -3.00942e-07 2.22058e-07 -3.39523e-07 1.31574e-06 0.0005 
1415 1 -0.00838969 -0.00432 0.000499771 -0.000118779 0.000135952 -0.000129015 7.39268e-07 -5.9234e-07 -3.57459e-07 2.16787e-07 -3.47439e-07 1.26583e-06 0.0005 
93 1 -0.00728845 -0.00467673 0.000499809 0.000414268 -0.000389565 2.93011e-08 1.78398e-07 -1.99442e-07 3.35021e-09 2.21764e-07 -2.23364e-07 1.23064e-06 0.0005 
2064 1 -0.0059497 -0.00400295 0.000499528 9.69735e-05 -7.40272e-06 4.41775e-05 2.38912e-07 2.29402e-07 -1.4675e-07 4.15882e-07 -1.80287e-08 1.30022e-06 0.0005 
1452 1 -0.00495023 -0.00402463 0.000499614 8.66925e-05 -0.000312364 1.86311e-05 -1.8978e-07 2.38598e-07 -2.63895e-08 3.29614e-07 3.07017e-08 1.17869e-06 0.0005 
1459 1 -0.00318317 -0.00414723 0.000499688 -0.000167737 0.000353514 -6.1633e-05 1.93764e-07 -7.55508e-07 -2.47093e-08 -4.72536e-08 -8.26916e-08 1.31724e-06 0.0005 
1507 1 -0.00174092 -0.00440412 0.000499778 0.000332414 -0.000261067 -4.56464e-06 -2.64243e-07 -2.18103e-07 5.26763e-09 2.9761e-07 -1.70852e-07 1.36798e-06 0.0005 
2217 1 -0.000783431 -0.00410624 0.000499632 0.000378159 8.02967e-06 8.11186e-05 1.15961e-07 -4.85488e-07 -3.89835e-07 8.14894e-07 1.33045e-07 1.3906e-06 0.0005 
982 1 -0.0128953 -0.00345443 0.00049974 2.03767e-05 -0.000404838 0.000353168 -5.4257e-07 9.96321e-07 1.31123e-06 2.13348e-07 -2.84623e-07 2.22103e-06 0.0005 
1544 1 -0.0099936 -0.00355896 0.000499802 -0.000244589 0.000119059 2.61232e-07 1.39685e-07 -2.49865e-07 5.45694e-08 1.74294e-07 -3.08777e-07 1.29161e-06 0.0005 
2007 1 -0.00899433 -0.00351901 0.000499809 -0.00010385 -0.000358097 1.1157e-06 5.60283e-08 -2.08038e-07 -8.00077e-08 8.35834e-08 -2.70714e-07 1.3234e-06 0.0005 
1617 1 -0.00781152 -0.00350398 0.000499616 0.000328032 0.000150597 1.52016e-05 6.30528e-08 -1.59527e-07 -1.70948e-07 3.47723e-07 -2.88299e-07 1.32008e-06 0.0005 
230 1 -0.00402304 -0.0035999 0.000499699 0.000400914 -0.00044393 -4.23322e-05 -4.95507e-07 -4.17156e-07 2.35545e-07 1.6699e-07 7.3103e-09 1.13072e-06 0.0005 
1067 1 -0.00239586 -0.00352428 0.000499676 0.000251948 0.00054736 -3.66013e-05 -1.55118e-07 -4.33595e-08 7.44503e-08 2.60592e-08 5.22152e-08 1.24085e-06 0.0005 
9 1 -0.0130694 -0.00246959 0.000499824 -0.000215657 -0.000288447 -1.58093e-06 2.33034e-07 -2.90013e-07 2.5104e-09 2.7791e-07 -3.26206e-07 2.26915e-06 0.0005 
2406 1 -0.0116575 -0.0030578 0.000499679 0.000234954 -0.000269635 -3.98695e-05 5.06894e-08 -4.81123e-07 -1.18357e-07 2.83557e-07 -3.1091e-07 1.32816e-06 0.0005 
178 1 -0.00952878 -0.00267232 0.000499768 0.000186529 3.49634e-05 -0.000130685 -9.28624e-07 1.73642e-07 3.66601e-07 7.92466e-08 -3.0936e-07 1.32496e-06 0.0005 
1238 1 -0.00852807 -0.00263436 0.000499654 0.000395101 -0.000570288 -7.76419e-05 -8.13795e-08 -3.09714e-07 3.65582e-08 2.19299e-07 -3.18465e-07 1.33508e-06 0.0005 
1610 1 -0.00704213 -0.00272144 0.000499801 0.000169357 -0.000484488 4.75581e-07 4.30539e-07 -1.3638e-07 6.71461e-09 5.67721e-07 -1.94396e-07 1.32075e-06 0.0005 
391 1 -0.00605558 -0.00288596 0.000499809 -4.52529e-05 -0.00041227 -1.3048e-05 1.9725e-07 7.05796e-08 -8.48203e-08 7.79652e-07 -1.00419e-08 1.24686e-06 0.0005 
1178 1 -0.00506625 -0.00303142 0.000499779 2.43373e-05 -0.000375882 1.18163e-05 2.42194e-07 -3.79953e-08 2.94318e-07 5.40213e-07 -2.32785e-08 1.15296e-06 0.0005 
1798 1 -0.00415974 -0.00260944 0.000499683 2.89948e-05 -0.000270779 1.55297e-05 4.5655e-07 -1.07824e-08 2.61718e-07 3.94133e-07 -7.68268e-08 1.10494e-06 0.0005 
619 1 -0.00322598 -0.00296703 0.00049978 0.000597259 0.00122894 1.51763e-05 2.99875e-07 8.31579e-09 -2.40507e-07 2.47214e-08 8.083e-08 1.09173e-06 0.0005 
38 1 -0.00211813 -0.00246088 0.000499687 0.000308997 5.71815e-05 -0.000121005 2.56869e-07 -3.95766e-07 2.70715e-07 9.52996e-08 1.54247e-07 1.08632e-06 0.0005 
736 1 -0.00080219 -0.00293413 0.000499776 0.00012677 3.17141e-05 1.47679e-05 -7.60819e-07 4.04197e-07 -1.74584e-07 5.12966e-07 2.07109e-07 1.50991e-06 0.0005 
186 1 -0.01243 -0.0017007 0.000499628 0.000368946 -0.000681501 -5.88439e-06 1.56273e-07 -1.3376e-07 -1.76996e-07 4.033e-07 -3.56415e-07 1.52422e-06 0.0005 
459 1 -0.011438 -0.00208224 0.0004998 -2.51959e-05 -6.54731e-05 -0.000136271 -1.88931e-07 -4.63783e-07 6.97944e-08 3.94994e-07 -3.85855e-07 1.3085e-06 0.0005 
866 1 -0.0104715 -0.00233845 0.000499686 0.00012271 -0.000128082 -2.95941e-05 2.42965e-07 -3.63325e-08 3.38563e-07 2.41903e-07 -3.94668e-07 1.20216e-06 0.0005 
1411 1 -0.00937659 -0.00168297 0.00049979 -2.88762e-05 -0.000303687 -0.000143624 4.38207e-07 1.88966e-06 -3.78032e-07 1.99768e-07 -5.05865e-07 1.23358e-06 0.0005 
1278 1 -0.00774601 -0.00201108 0.000499641 0.000475843 -0.000782249 -4.07968e-05 3.60628e-07 -2.39359e-07 -5.55591e-08 4.2264e-07 -2.96738e-07 1.3288e-06 0.0005 
62 1 -0.00596742 -0.00188875 0.000499756 0.000110393 -0.000426791 -1.45001e-05 1.7958e-07 -2.85964e-07 -8.42767e-08 7.14087e-07 -1.68007e-07 1.24259e-06 0.0005 
1669 1 -0.00497818 -0.00203534 0.00049971 -0.000169416 -0.000403713 -4.7586e-05 -4.73829e-07 -4.44827e-07 -1.29198e-07 5.71726e-07 -1.70586e-07 1.07302e-06 0.0005 
1060 1 -0.00386641 -0.00158045 0.000499652 0.000271948 0.000382284 -3.01935e-05 4.77326e-07 1.9171e-07 1.48332e-07 2.90857e-07 -3.17933e-07 1.06034e-06 0.0005 
2261 1 -0.00290033 -0.00183801 0.000499714 5.04521e-05 -0.000312481 -5.99469e-05 -6.08872e-08 -4.11858e-07 1.88283e-08 1.06021e-07 -1.0565e-07 1.10542e-06 0.0005 
695 1 -0.00124123 -0.00196666 0.000499751 -0.000260196 -0.000284057 -1.06957e-05 4.84318e-07 5.58058e-07 1.08569e-07 4.42705e-07 1.18286e-07 1.45717e-06 0.0005 
1530 1 -0.0132819 -0.00117619 0.000499832 -0.000310249 -0.00083406 -3.48297e-06 2.81372e-07 -2.11809e-07 -6.30227e-08 3.05901e-07 -2.92224e-07 2.38119e-06 0.0005 
1654 1 -0.0107112 -0.00136773 0.000499631 3.60409e-05 -0.000135466 -6.83429e-05 4.57166e-08 3.0459e-07 -1.4625e-07 3.9434e-07 -4.35609e-07 1.31618e-06 0.0005 
299 1 -0.00767684 -0.00097186 0.000499807 0.00056741 -0.000338612 -1.00952e-05 2.71832e-07 -2.02311e-07 4.28126e-08 3.64419e-07 -2.5532e-07 1.27586e-06 0.0005 
98 1 -0.00667292 -0.0010624 0.000499554 0.0001325 -0.00010641 2.89361e-05 1.90493e-07 -7.09926e-08 -4.36775e-08 6.06103e-07 -2.74071e-07 1.24682e-06 0.0005 
781 1 -0.0020354 -0.00133634 0.000499694 0.000429533 -0.000619013 -0.000131944 -1.24775e-06 3.61741e-07 5.61917e-07 2.70142e-07 -2.06177e-07 1.16079e-06 0.0005 
1955 1 -0.000317958 -0.00147606 0.00049963 0.000101736 -0.000116936 -0.00023359 -5.39431e-08 8.44668e-09 3.10381e-07 6.45253e-07 1.17646e-07 1.22147e-06 0.0005 
967 1 -0.0133488 -0.000176341 0.000499812 -4.27767e-05 -0.000573663 -4.15974e-05 -1.11187e-06 1.6154e-07 1.27873e-07 1.91127e-07 -1.06796e-07 2.46007e-06 0.0005 
1675 1 -0.0124515 -0.000617491 0.000499752 -0.000170462 -0.000264669 -7.21586e-05 -5.00634e-07 -8.44388e-07 -1.85025e-07 3.51853e-07 -2.96407e-07 1.53078e-06 0.0005 
2125 1 -0.0115057 -9.05054e-05 0.000499726 0.000618095 0.000584499 3.19408e-05 4.28036e-07 -5.42425e-07 -7.19056e-08 1.56e-07 -2.37688e-07 1.41984e-06 0.0005 
2169 1 -0.00953029 -0.000694728 0.000499665 2.62074e-05 -8.27112e-05 -0.000102634 1.03708e-07 1.04586e-07 -2.3985e-07 2.24261e-07 -5.70098e-07 1.22142e-06 0.0005 
6577 1 -0.00858304 -0.000374566 0.000499674 0.000109845 -0.000105675 9.34119e-06 -6.57004e-08 -5.36562e-09 -9.12327e-08 3.75679e-07 -3.48328e-07 1.21859e-06 0.0005 
6638 1 -0.00682763 -7.4655e-05 0.000499685 0.000173383 -4.09917e-05 -7.39068e-05 3.09251e-07 1.54329e-07 -2.09196e-07 6.15424e-07 -2.36732e-07 1.00801e-06 0.0005 
1600 1 -0.00576522 -0.000643086 0.000499667 4.34952e-05 1.80569e-05 -1.38585e-05 2.41916e-07 -3.06902e-08 2.19623e-07 6.09831e-07 -3.75707e-07 1.23752e-06 0.0005 
108 1 -0.00325924 -0.000769088 0.000499713 -0.000328174 -0.00210624 8.97857e-05 2.33599e-07 -1.56707e-07 1.7277e-07 2.31993e-07 -4.76329e-07 1.12654e-06 0.0005 
288 1 -0.0017855 -0.000337697 0.000499768 -6.08488e-05 -0.00066931 -1.29526e-06 3.46847e-07 -2.43375e-07 -3.82747e-08 5.70731e-07 -2.88704e-07 1.16349e-06 0.0005 
1934 1 -0.000385046 -0.000478387 0.000499599 0.000135493 0.000161093 -0.000100746 -8.15302e-07 -8.71353e-07 -6.55012e-07 7.88955e-07 4.2629e-08 1.2219e-06 0.0005 
1180 1 -0.00374336 -0.0128146 0.000924401 0.000395858 -0.00024003 -0.000398871 6.33991e-07 -4.6995e-07 -7.41895e-07 9.79406e-07 -1.07711e-07 2.33046e-06 0.0005 
1047 1 -0.00271405 -0.0130714 0.000940692 0.000466555 -0.000174832 -0.000394532 -1.31857e-07 -4.12276e-07 -3.43568e-07 1.04813e-06 2.11417e-07 2.43893e-06 0.0005 
2053 1 -0.00467681 -0.0125042 0.000745716 0.000224589 -8.69653e-05 -0.000393784 6.60624e-08 -3.7825e-07 2.79364e-07 7.51792e-07 -9.26398e-08 2.14011e-06 0.0005 
427 1 -0.00477293 -0.0110118 0.0011633 0.00079516 -6.00776e-05 8.01784e-05 4.63224e-07 -1.07562e-08 -1.78226e-07 1.00559e-06 -2.18026e-07 2.18888e-06 0.0005 
2081 1 -0.00166634 -0.0106858 0.00083462 0.000355805 1.09827e-05 -0.000401879 -1.46852e-06 -8.93266e-07 -1.28412e-06 1.73398e-06 1.20709e-06 1.64797e-06 0.0005 
1375 1 -0.00811293 -0.00948257 0.000935255 -4.79126e-05 -0.000663169 9.81696e-05 6.07562e-07 1.28646e-07 2.07113e-07 -4.90469e-07 -5.56955e-07 2.31707e-06 0.0005 
1658 1 -0.00634698 -0.0100592 0.000537234 0.000363863 0.000203767 -0.000931124 1.4394e-07 6.34093e-07 -1.06561e-06 2.10039e-07 -4.40616e-07 1.32015e-06 0.0005 
110 1 -0.00455548 -0.0100387 0.00109099 0.000679687 0.000165932 -3.40881e-05 8.27333e-08 5.01619e-08 1.23847e-07 1.40025e-06 -3.94312e-07 1.93294e-06 0.0005 
1487 1 -0.00224125 -0.00991893 0.00125138 0.00120785 -0.000153614 -0.000730814 7.78047e-07 -6.44078e-07 -9.50946e-07 2.48659e-06 -5.25443e-07 1.11487e-06 0.0005 
2461 1 -0.00958746 -0.00929046 0.00111693 2.8254e-05 -7.34666e-05 1.31604e-05 1.38328e-07 -4.06704e-08 1.9341e-07 -4.15213e-08 -5.31971e-07 2.72517e-06 0.0005 
106 1 -0.00621803 -0.00935379 0.00125429 9.79923e-05 -0.000187802 -7.91489e-05 3.53283e-07 -8.14971e-07 1.97175e-07 1.92949e-07 -3.53601e-07 2.48494e-06 0.0005 
1750 1 -0.00396583 -0.00923715 0.000994188 0.000930076 0.00011661 -0.000343796 -5.0809e-07 6.14955e-08 1.10076e-07 2.49417e-06 -6.42682e-07 1.58314e-06 0.0005 
243 1 -0.00695754 -0.00838306 0.00120957 -0.000330807 -0.000135906 -0.000107141 6.54318e-08 -1.86072e-07 3.81054e-07 -9.09171e-08 -1.00376e-07 3.12305e-06 0.0005 
948 1 -0.00517891 -0.00801002 0.000780315 0.000189539 0.000171117 -0.00143299 2.82211e-08 -4.14255e-07 -1.38242e-06 7.07351e-07 -5.35971e-08 1.833e-06 0.0005 
793 1 -0.00403107 -0.00821204 0.000710165 0.000454055 0.000292367 -0.00194322 1.03426e-06 -1.39921e-06 -2.29377e-06 1.42234e-06 -2.91883e-07 1.2124e-06 0.0005 
1694 1 -0.00169951 -0.00852784 0.00123347 0.00109514 -0.000466077 -0.000738964 8.74483e-07 -3.21851e-07 7.99878e-07 1.80826e-06 -2.134e-06 9.27631e-07 0.0005 
842 1 -0.0100253 -0.0076439 0.00106245 3.61744e-05 4.6738e-05 1.75014e-05 8.76791e-08 -2.79215e-07 -5.97603e-09 1.85344e-08 -4.75792e-07 2.52558e-06 0.0005 
239 1 -0.00900831 -0.00741987 0.00114451 -0.000230969 -0.000230748 0.000365154 5.44936e-07 -6.38981e-08 2.17547e-07 -5.23381e-07 -3.44881e-07 2.77508e-06 0.0005 
13 1 -0.00304266 -0.00786521 0.00119723 0.000681592 -2.50826e-05 -6.33676e-05 1.588e-07 -2.12889e-07 -3.32945e-07 1.49851e-06 -8.13388e-07 1.99004e-06 0.0005 
1059 1 -0.00718021 -0.00673711 0.00118706 -6.98961e-06 8.31531e-05 -0.000122358 6.13888e-07 2.87525e-09 2.37951e-07 -2.01651e-07 7.19498e-08 2.79142e-06 0.0005 
830 1 -0.00488831 -0.00644195 0.00104379 0.000280738 0.000697808 1.88896e-05 2.63021e-07 2.6128e-07 3.96165e-07 5.19745e-07 3.04016e-07 2.14167e-06 0.0005 
515 1 -0.00310789 -0.00650776 0.000808359 0.000117021 -0.000352709 -0.000172935 2.59765e-07 5.46934e-08 2.7109e-07 2.503e-07 -3.74571e-07 1.47996e-06 0.0005 
2336 1 -0.00167666 -0.00691132 0.000535941 0.000434372 -0.000661441 -0.00151761 7.1124e-07 -5.52635e-07 -7.93909e-07 8.04944e-07 -1.79958e-06 7.91698e-07 0.0005 
2421 1 -0.000545538 -0.00705644 0.000956058 0.0004582 -0.000484903 -0.0001225 -3.14851e-08 -4.14608e-07 3.87653e-07 8.9527e-07 -2.86467e-06 1.54961e-06 0.0005 
1645 1 -0.00626126 -0.00560944 0.00114055 -0.000166529 -0.000102019 4.1796e-05 3.07495e-07 3.08973e-08 4.62269e-08 4.08186e-07 4.78631e-08 2.73316e-06 0.0005 
100 1 -0.00401219 -0.00567512 0.00124308 0.000221297 0.000332698 -5.36562e-05 5.44113e-07 -7.20361e-07 1.01591e-07 4.52865e-07 2.86014e-07 2.46771e-06 0.0005 
2208 1 -0.00153082 -0.00568932 0.00106209 0.000400817 0.00010346 -0.000554939 6.28135e-07 -7.03519e-08 -4.34745e-07 4.3903e-07 -8.92071e-07 2.47767e-06 0.0005 
1899 1 -0.0103914 -0.00548314 0.00125514 0.000216807 -1.02325e-05 0.000139289 2.39058e-07 -1.03294e-07 -5.60309e-07 5.70983e-07 -3.11817e-07 3.34611e-06 0.0005 
220 1 -0.00939867 -0.00552407 0.00114377 0.000243658 -0.000353155 -2.90822e-05 -8.17686e-07 -2.9196e-07 4.92002e-07 3.28107e-07 -3.59451e-07 2.96846e-06 0.0005 
1211 1 -0.00784951 -0.00549392 0.00102075 -8.59348e-05 -0.000284428 1.10076e-05 -1.48127e-08 -1.14173e-07 3.00094e-07 -9.34023e-08 -2.27609e-07 2.27838e-06 0.0005 
565 1 -0.00329009 -0.00481366 0.00124593 0.0004325 -0.000250381 -0.000523601 3.157e-07 -6.20014e-07 -4.29465e-08 2.25022e-08 -5.43489e-08 2.48243e-06 0.0005 
2300 1 -0.0118174 -0.00397648 0.000860547 0.000127604 -0.00014608 1.00435e-05 7.85466e-07 -7.66383e-07 1.46518e-07 2.674e-07 -2.62631e-07 2.36791e-06 0.0005 
1986 1 -0.00646742 -0.00463314 0.00107767 -3.01187e-05 -1.45108e-07 2.87865e-05 5.85356e-07 5.76769e-08 5.81443e-08 2.77531e-07 -4.36721e-08 2.55428e-06 0.0005 
1236 1 -0.00464125 -0.00465317 0.00121301 -0.00158336 -0.00245051 -0.0010592 3.28815e-07 7.28985e-07 3.67829e-07 1.86549e-07 7.2773e-08 2.47945e-06 0.0005 
483 1 -0.00252549 -0.00416933 0.00125247 -2.30159e-05 0.000496751 -0.00016711 3.96586e-07 -8.84641e-07 -6.32751e-08 -1.56934e-07 -1.5225e-07 3.23272e-06 0.0005 
696 1 -0.00686856 -0.00370845 0.000761191 7.61859e-05 -0.000607134 4.62663e-06 4.15404e-07 -2.51833e-07 -4.62718e-07 4.02144e-07 -1.57837e-07 1.65265e-06 0.0005 
704 1 -0.00148719 -0.00353136 0.000916578 0.000228403 -0.000115336 4.12685e-05 -3.55249e-07 -6.22471e-07 9.85898e-08 4.78753e-07 1.39456e-07 2.22699e-06 0.0005 
2160 1 -8.66085e-05 -0.00351174 0.000900086 0.000294865 0.000181681 -0.000249823 -7.24639e-07 -3.06906e-07 -3.71618e-07 6.33232e-07 8.36568e-08 2.01267e-06 0.0005 
532 1 -0.0107891 -0.00315201 0.000986291 0.000292993 -0.000127694 6.89352e-06 -1.8579e-07 -3.47614e-07 2.91043e-07 2.06287e-07 -3.23395e-07 2.50385e-06 0.0005 
1201 1 -0.00780578 -0.00276928 0.00117779 0.00131302 0.00093318 -0.000844274 1.1248e-06 8.77591e-08 -8.03904e-07 4.35957e-07 -3.0312e-07 3.12751e-06 0.0005 
2224 1 -0.00855182 -0.00180215 0.00105324 0.000440833 -0.000473118 -0.000252922 6.9857e-08 -4.64671e-07 -3.0675e-07 2.3969e-07 -3.49482e-07 2.10334e-06 0.0005 
1596 1 -0.00696562 -0.00181247 0.00109222 0.000465067 -0.000377775 -0.000114757 2.17519e-07 6.23392e-08 -3.10122e-07 5.02517e-07 -2.01073e-07 2.08635e-06 0.0005 
2459 1 -0.00349926 -0.00227398 0.00117117 -0.00095804 0.00154634 8.0669e-05 2.62569e-07 -6.02211e-07 6.31683e-07 2.13621e-07 1.07019e-08 2.35043e-06 0.0005 
48 1 -0.000535193 -0.00209789 0.00125174 -0.000741423 -0.00100887 -0.00128019 1.79364e-06 -4.27157e-07 6.23166e-07 5.61716e-07 2.06138e-07 3.16296e-06 0.0005 
78 1 -0.0116463 -0.00114334 0.000773298 5.62326e-05 5.24875e-05 -0.000333913 -1.0765e-07 -5.07578e-07 5.75966e-07 4.57397e-07 -3.91241e-07 2.09695e-06 0.0005 
367 1 -0.0100506 -0.00115436 0.00121919 5.41248e-05 -0.000131683 -0.000107974 4.30866e-08 -8.96042e-08 -6.02889e-08 2.93304e-07 -5.92638e-07 2.9769e-06 0.0005 
1540 1 -0.00604173 -0.00123768 0.00125495 0.000401521 -0.000353789 -7.1396e-05 1.04583e-06 3.66352e-07 -7.38438e-07 6.87025e-07 -2.63048e-07 2.95385e-06 0.0005 
5 1 -0.0050688 -0.00116798 0.000988344 -0.000279091 -0.000451373 -2.80727e-05 3.105e-07 -1.58512e-07 1.95846e-07 4.97385e-07 -3.8543e-07 2.09169e-06 0.0005 
1357 1 -0.00114613 -0.00103062 0.000838879 0.000273275 3.33019e-05 -0.000219607 -6.86612e-07 1.97873e-09 3.92389e-07 6.46663e-07 -4.79479e-08 2.04959e-06 0.0005 
2095 1 -0.010478 -0.000404245 0.000630038 9.16169e-06 -0.000213899 -0.000196049 -4.28905e-08 1.398e-07 9.16116e-08 3.08348e-07 -4.10534e-07 1.49701e-06 0.0005 
42 1 -0.00418828 -0.000709519 0.000870297 -0.000511967 -1.92932e-05 -0.000229018 3.2107e-07 7.19645e-08 -3.92641e-08 3.47927e-07 -5.87844e-07 1.83347e-06 0.0005 
548 1 -0.00252066 -0.000559299 0.00114026 -0.000291037 -0.000587778 -0.000172539 5.96744e-07 -1.0237e-06 -8.13877e-08 2.60896e-07 -5.19315e-07 2.70646e-06 0.0005 
805 1 -0.0029459 -0.0130169 0.00191177 0.00019944 0.000273192 -0.000648398 9.47692e-07 5.24083e-08 3.87404e-07 1.058e-06 -8.13116e-08 3.32674e-06 0.0005 
643 1 -0.0019912 -0.0132008 0.00161917 0.000703227 9.41206e-05 -0.000366361 8.39134e-07 -3.11161e-07 -1.32869e-06 1.07186e-06 3.54577e-07 3.27044e-06 0.0005 
1951 1 -0.000905633 -0.0133193 0.00130709 0.000389442 2.67028e-05 -8.03446e-05 3.75828e-07 -4.93087e-07 -3.95125e-07 9.0273e-07 4.24011e-07 2.97691e-06 0.0005 
1971 1 -0.000141642 -0.0126744 0.00125885 0.00030171 -2.28848e-05 -0.00060363 3.82854e-07 -1.30139e-06 -6.23461e-07 2.05727e-07 4.59527e-07 2.4919e-06 0.0005 
2416 1 -0.000186002 -0.0133483 0.00200058 0.000457849 0.000115516 -0.000331281 3.578e-07 -5.14529e-08 -3.51577e-07 4.77498e-07 2.43479e-07 3.25648e-06 0.0005 
2017 1 -0.00570509 -0.011998 0.00125778 0.000867688 -0.00354133 -0.00160851 1.00923e-06 -1.28207e-06 7.5273e-07 3.69596e-07 -1.19024e-07 2.86945e-06 0.0005 
527 1 -0.00435942 -0.0126182 0.00168702 0.000589198 -0.000382683 -0.000531207 9.01369e-07 3.17909e-07 -2.24194e-07 8.34974e-07 -1.4621e-07 3.17045e-06 0.0005 
2327 1 -0.0033638 -0.0120663 0.0014684 0.000744238 -6.98024e-05 -0.000934279 6.73291e-07 -3.08498e-07 -1.58498e-06 1.2495e-06 1.16176e-07 2.7511e-06 0.0005 
886 1 -0.00238467 -0.012265 0.00143141 0.000744172 -7.31138e-05 -0.000736415 6.44693e-07 -5.24906e-07 -1.9559e-06 1.26256e-06 5.48957e-07 2.61202e-06 0.0005 
848 1 -0.00141973 -0.0124631 0.00126032 0.000604598 0.000139026 -0.000492282 5.73096e-07 -8.07383e-07 -5.31456e-07 1.19077e-06 1.11116e-06 2.98869e-06 0.0005 
125 1 -0.000677752 -0.0119404 0.00167959 0.000385666 0.000230636 -0.000381537 1.57545e-07 -8.96023e-07 8.84277e-07 8.50359e-07 1.53765e-06 3.10108e-06 0.0005 
2456 1 -0.00681455 -0.0114799 0.00139194 0.000720501 -0.000420339 -0.00057654 6.21861e-07 -4.81304e-07 -6.13501e-07 9.25252e-08 -6.56831e-08 3.03413e-06 0.0005 